/*--------------------------------*- C++ -*----------------------------------*\
| =========                 |                                                 |
| \\      /  F ield         | OpenFOAM: The Open Source CFD Toolbox           |
|  \\    /   O peration     | Version:  v1806                                 |
|   \\  /    A nd           | Web:      www.OpenFOAM.com                      |
|    \\/     M anipulation  |                                                 |
\*---------------------------------------------------------------------------*/
FoamFile
{
    version     2.0;
    format      binary;
    class       polyBoundaryMesh;
    arch        "LSB;label=32;scalar=64";
    location    "constant/polyMesh";
    object      boundary;
}
// * * * * * * * * * * * * * * * * * * * * * * * * * * * * * * * * * * * * * //

6
(
    sides
    {
        type            wall;
        physicalType    wall;
        nFaces          4998;
        startFace       996196;
    }
    inlet
    {
        type            wall;
        physicalType    wall;
        nFaces          199;
        startFace       1001194;
    }
    outlet
    {
        type            wall;
        physicalType    wall;
        nFaces          199;
        startFace       1001393;
    }
    ballOut
    {
        type            overset;
        physicalType    overset;
        nFaces          116;
        startFace       1001592;
    }
    ballIn
    {
        type            wall;
        physicalType    wall;
        nFaces          116;
        startFace       1001708;
    }
    frontAndBack
    {
        type            empty;
        nFaces          999010;
        startFace       1001824;
    }
)

// ************************************************************************* //
