/*--------------------------------*- C++ -*----------------------------------*\
| =========                 |                                                 |
| \\      /  F ield         | OpenFOAM: The Open Source CFD Toolbox           |
|  \\    /   O peration     | Version:  v1806                                 |
|   \\  /    A nd           | Web:      www.OpenFOAM.com                      |
|    \\/     M anipulation  |                                                 |
\*---------------------------------------------------------------------------*/
FoamFile
{
    version     2.0;
    format      ascii;
    class       volVectorField;
    location    "0.045";
    object      U;
}
// * * * * * * * * * * * * * * * * * * * * * * * * * * * * * * * * * * * * * //

dimensions      [0 1 -1 0 0 0 0];


internalField   nonuniform List<vector> 
37785
(
(-32.4285263 -0.07673662789 0)
(-32.44657311 -0.03692196675 0)
(-32.47173226 -0.0250516084 0)
(-32.48051187 0.001834085369 0)
(-32.48693453 0.02285198417 0)
(-32.49042154 0.0463950624 0)
(-32.49194175 0.06986673697 0)
(-32.49158781 0.09466450945 0)
(-32.48922742 0.1196709621 0)
(-32.48286342 0.1547314251 0)
(-32.47306707 0.1838180154 0)
(-32.46115776 0.2149157394 0)
(-32.4507129 0.2565427738 0)
(-32.44242582 0.3083960791 0)
(-32.43721157 0.3402578185 0)
(-32.42390344 0.3794033828 0)
(-32.41050978 0.434481901 0)
(-32.4020263 0.4901840955 0)
(-32.39406073 0.5447790603 0)
(-32.3862956 0.6011820996 0)
(-32.37928406 0.6592291483 0)
(-32.37354418 0.7199131584 0)
(-32.36959295 0.7836741112 0)
(-32.3679054 0.8501206302 0)
(-32.36885746 0.9187711703 0)
(-32.37269302 0.9892247264 0)
(-32.37928743 1.061210757 0)
(-32.38832316 1.134614336 0)
(-32.39916817 1.209756615 0)
(-32.41107654 1.286908242 0)
(-32.42334788 1.365521148 0)
(-32.43509075 1.445091388 0)
(-32.4452082 1.525549509 0)
(-32.452518 1.60688505 0)
(-32.45588316 1.688994982 0)
(-32.45432302 1.771699502 0)
(-32.44707407 1.854796014 0)
(-32.43351671 1.938191279 0)
(-32.4128289 2.022326804 0)
(-32.38357849 2.108466176 0)
(-32.34424105 2.196943853 0)
(-32.29430057 2.284975484 0)
(-32.2340336 2.369896382 0)
(-32.161785 2.450905381 0)
(-32.07017586 2.526816764 0)
(-31.93705859 2.594351524 0)
(-31.69489341 2.643818808 0)
(-31.18857435 2.65469908 0)
(-30.08417349 2.586962259 0)
(-28.14849995 2.355203614 0)
(-25.22866581 1.872941913 0)
(-21.19857892 1.224463689 0)
(-17.33408793 0.7757356217 0)
(-14.65216475 0.5716895158 0)
(-12.95381674 0.4647273057 0)
(-11.90105552 0.4007700585 0)
(-11.24656246 0.3625780107 0)
(-10.84354732 0.3409566504 0)
(-10.61114384 0.3300479899 0)
(-10.50704989 0.326030327 0)
(-10.51270224 0.3265704656 0)
(-10.62830035 0.3301952506 0)
(-10.87518238 0.3356348107 0)
(-11.30502164 0.3413666544 0)
(-12.01851072 0.3449482089 0)
(-13.18877987 0.3388079351 0)
(-15.06226471 0.294325266 0)
(-17.86220524 0.1242926726 0)
(-21.39889849 -0.25555464 0)
(-24.7704059 -0.6189013342 0)
(-27.67980747 -0.8619540418 0)
(-30.07006161 -1.013455143 0)
(-31.66272768 -1.152833702 0)
(-32.38978711 -1.272924717 0)
(-32.62854954 -1.370207194 0)
(-32.68392816 -1.448980488 0)
(-32.68108542 -1.508195905 0)
(-32.63703801 -1.535588694 0)
(-32.62381392 -1.549339831 0)
(-32.62509807 -1.54850166 0)
(-32.61374457 -1.53433735 0)
(-32.59402696 -1.512203475 0)
(-32.5714321 -1.483061213 0)
(-32.54761963 -1.447328094 0)
(-32.52300816 -1.405924624 0)
(-32.49778837 -1.359635611 0)
(-32.4723104 -1.309233878 0)
(-32.4471361 -1.255403097 0)
(-32.42297612 -1.198709118 0)
(-32.40055968 -1.139788253 0)
(-32.38049269 -1.07958712 0)
(-32.36329311 -1.018657641 0)
(-32.34959697 -0.9570075382 0)
(-32.33987508 -0.8948900658 0)
(-32.33435588 -0.8328144449 0)
(-32.33292073 -0.7713299515 0)
(-32.33513889 -0.7110183041 0)
(-32.34049732 -0.6525738359 0)
(-32.34837599 -0.5965853919 0)
(-32.35814943 -0.5425686457 0)
(-32.36948567 -0.4879080087 0)
(-32.38307007 -0.4271698389 0)
(-32.39898192 -0.3702649125 0)
(-32.40784961 -0.340456461 0)
(-32.41513036 -0.3141184771 0)
(-32.43423371 -0.2602571634 0)
(-32.44751257 -0.2259725157 0)
(-32.45123813 -0.1858503329 0)
(-32.46289701 -0.1509855424 0)
(-32.48307541 -0.1266684335 0)
(-32.49427405 -0.09844796676 0)
(-32.49917912 -0.07413837833 0)
(-32.50103508 -0.05352405491 0)
(-32.50025167 -0.0340510369 0)
(-32.49699848 -0.01497688194 0)
(-32.49035264 0.002237336881 0)
(-32.47862138 0.02211627396 0)
(-32.45650195 0.03115702992 0)
(-32.42909598 0.06372070733 0)
(-32.46466279 -0.07768549567 0)
(-32.48651996 -0.028704373 0)
(-32.50803509 -0.0155416327 0)
(-32.5177475 0.008903371256 0)
(-32.52454168 0.02991708773 0)
(-32.5288781 0.05318968785 0)
(-32.53139181 0.07628039811 0)
(-32.53224053 0.1003175617 0)
(-32.53168939 0.1243858876 0)
(-32.52746546 0.1498069446 0)
(-32.51547843 0.1839202739 0)
(-32.50965715 0.2186756962 0)
(-32.50568454 0.2611923595 0)
(-32.50825829 0.3070491944 0)
(-32.48600149 0.3426130015 0)
(-32.48288171 0.3881370908 0)
(-32.48201807 0.4424922674 0)
(-32.47779772 0.4971436179 0)
(-32.47064612 0.5513478235 0)
(-32.46080878 0.6072398111 0)
(-32.45299361 0.6652497394 0)
(-32.44896898 0.7263269526 0)
(-32.44817646 0.7902098412 0)
(-32.45013616 0.8565369556 0)
(-32.4548248 0.9250333303 0)
(-32.4625392 0.9953880179 0)
(-32.47303974 1.067474156 0)
(-32.48616023 1.141123817 0)
(-32.50118098 1.216294808 0)
(-32.51661613 1.293193569 0)
(-32.53164718 1.372009841 0)
(-32.54572671 1.452714728 0)
(-32.55798296 1.535172551 0)
(-32.56732918 1.619254818 0)
(-32.57267369 1.704853399 0)
(-32.57306359 1.791845792 0)
(-32.56777224 1.880017406 0)
(-32.5562926 1.968912444 0)
(-32.53798123 2.057673523 0)
(-32.51109199 2.145084458 0)
(-32.47262205 2.23042882 0)
(-32.42070725 2.314920462 0)
(-32.35458503 2.399684602 0)
(-32.27108431 2.483287043 0)
(-32.16039535 2.563386609 0)
(-31.99452358 2.635337857 0)
(-31.69300085 2.692175404 0)
(-31.0751666 2.713682124 0)
(-29.81281573 2.658044515 0)
(-27.61633404 2.462520854 0)
(-24.46097914 2.145027117 0)
(-20.67402381 1.861846955 0)
(-17.09100703 1.464134142 0)
(-14.47044721 1.124649976 0)
(-12.82029416 0.8654464977 0)
(-11.81580058 0.6757597741 0)
(-11.19634075 0.5474112987 0)
(-10.81488037 0.460813834 0)
(-10.59471406 0.4000628707 0)
(-10.49711267 0.3542181474 0)
(-10.50556048 0.3162295608 0)
(-10.6208581 0.2811190653 0)
(-10.86369588 0.2443780559 0)
(-11.28432936 0.2012808775 0)
(-11.98409609 0.1471807488 0)
(-13.14565883 0.07695808256 0)
(-15.02215981 -0.02541604446 0)
(-17.74199941 -0.1983991082 0)
(-21.0140196 -0.3956030419 0)
(-24.36522499 -0.5953483681 0)
(-27.38447337 -0.7852539574 0)
(-29.83255821 -0.9225029648 0)
(-31.44753511 -1.062398819 0)
(-32.24784798 -1.21226954 0)
(-32.53863775 -1.336389307 0)
(-32.62812833 -1.429120686 0)
(-32.65620983 -1.497980572 0)
(-32.61711635 -1.525445443 0)
(-32.63070296 -1.546446096 0)
(-32.64773825 -1.546872619 0)
(-32.64880276 -1.533416878 0)
(-32.63610556 -1.511394497 0)
(-32.62268727 -1.482475231 0)
(-32.60604296 -1.446261468 0)
(-32.58730264 -1.404007614 0)
(-32.56711161 -1.35687192 0)
(-32.54581049 -1.305819623 0)
(-32.52395536 -1.25169707 0)
(-32.50218185 -1.195269267 0)
(-32.48096543 -1.137202815 0)
(-32.46067568 -1.077926404 0)
(-32.44240438 -1.017566982 0)
(-32.42746825 -0.9563313622 0)
(-32.41621758 -0.8947048846 0)
(-32.40892487 -0.8332240676 0)
(-32.40550757 -0.7723675863 0)
(-32.40551096 -0.7125778139 0)
(-32.40882805 -0.6543137335 0)
(-32.41573553 -0.598079109 0)
(-32.42653081 -0.5441922776 0)
(-32.43966553 -0.4918326862 0)
(-32.44998483 -0.4402398008 0)
(-32.44876951 -0.3886670937 0)
(-32.43874706 -0.343133243 0)
(-32.47600766 -0.3009760062 0)
(-32.4824424 -0.2584645548 0)
(-32.50561358 -0.2244729451 0)
(-32.50440012 -0.1902331732 0)
(-32.50557735 -0.1525495442 0)
(-32.51343966 -0.1228661766 0)
(-32.53201999 -0.09717709557 0)
(-32.53522434 -0.07799828403 0)
(-32.53535966 -0.05879984555 0)
(-32.53335729 -0.04030027335 0)
(-32.52887181 -0.0218932502 0)
(-32.52126545 -0.004830958912 0)
(-32.50978579 0.0131044621 0)
(-32.49174115 0.02284115387 0)
(-32.46036172 0.06357713888 0)
(-32.47950316 -0.05826213027 0)
(-32.51405376 -0.02020987761 0)
(-32.52121364 -0.003974658125 0)
(-32.53053164 0.0230478116 0)
(-32.53786893 0.04366924449 0)
(-32.54305004 0.06661848034 0)
(-32.54651993 0.08941430864 0)
(-32.54841159 0.1137867443 0)
(-32.54856322 0.1395912437 0)
(-32.5475923 0.1672864572 0)
(-32.54760845 0.1996737858 0)
(-32.5468163 0.2347062783 0)
(-32.5416041 0.2745600746 0)
(-32.54144772 0.3151144782 0)
(-32.53899317 0.3545137601 0)
(-32.53420342 0.3998489812 0)
(-32.52988808 0.450830656 0)
(-32.52806263 0.5028556306 0)
(-32.52673638 0.5556601707 0)
(-32.52494437 0.6104333612 0)
(-32.52347471 0.6678500391 0)
(-32.52294522 0.7279279338 0)
(-32.52386267 0.7905704246 0)
(-32.52664911 0.8556523973 0)
(-32.53160094 0.923074121 0)
(-32.53886382 0.9927272679 0)
(-32.54855518 1.064464559 0)
(-32.56052527 1.138203983 0)
(-32.57447844 1.213893825 0)
(-32.58989683 1.291573673 0)
(-32.60583736 1.371290884 0)
(-32.6211272 1.453000889 0)
(-32.6345248 1.536613062 0)
(-32.64476553 1.622012187 0)
(-32.6506172 1.70904847 0)
(-32.65092999 1.797529047 0)
(-32.64463722 1.887211855 0)
(-32.63068685 1.977812312 0)
(-32.607986 2.069091316 0)
(-32.57567015 2.16118392 0)
(-32.53359781 2.254914508 0)
(-32.48167337 2.350954491 0)
(-32.41842413 2.449252594 0)
(-32.33968188 2.549325819 0)
(-32.23506485 2.65005575 0)
(-32.07705328 2.747927878 0)
(-31.78305426 2.839049977 0)
(-31.13699681 2.902065664 0)
(-29.79927212 2.922099501 0)
(-27.53445638 2.864325465 0)
(-24.38001365 2.759432139 0)
(-20.57226972 2.742737626 0)
(-16.86879431 2.803356846 0)
(-14.10092591 2.715609986 0)
(-12.42792373 2.359689629 0)
(-11.50945925 1.876263165 0)
(-10.98332695 1.428622173 0)
(-10.66701687 1.055402179 0)
(-10.4860458 0.7488566237 0)
(-10.40882897 0.4867788421 0)
(-10.42401181 0.2463915358 0)
(-10.5347704 0.007510913302 0)
(-10.76194637 -0.2453969188 0)
(-11.15741076 -0.5162325655 0)
(-11.83429126 -0.7798788721 0)
(-13.00711662 -0.9626565907 0)
(-14.94646696 -0.9865365738 0)
(-17.72049039 -0.8791285552 0)
(-20.98276866 -0.7722714589 0)
(-24.27186856 -0.7656846097 0)
(-27.29727301 -0.8169077933 0)
(-29.76248528 -0.8957724527 0)
(-31.3365894 -1.01534443 0)
(-32.10735556 -1.157493101 0)
(-32.40394887 -1.288292055 0)
(-32.51095821 -1.383848844 0)
(-32.5658733 -1.458553269 0)
(-32.59266765 -1.513781407 0)
(-32.60221004 -1.532414626 0)
(-32.64762002 -1.537008893 0)
(-32.65692892 -1.523252367 0)
(-32.65419047 -1.502332523 0)
(-32.64764929 -1.473332211 0)
(-32.63844896 -1.437470765 0)
(-32.62621793 -1.395461255 0)
(-32.61111903 -1.348427681 0)
(-32.59375876 -1.297385973 0)
(-32.57496249 -1.243215267 0)
(-32.55569138 -1.186676248 0)
(-32.536983 -1.128423594 0)
(-32.51986893 -1.068975421 0)
(-32.50511716 -1.008728323 0)
(-32.49313884 -0.9480860631 0)
(-32.48420101 -0.88746673 0)
(-32.47834684 -0.8272658457 0)
(-32.47546766 -0.7679010625 0)
(-32.47536237 -0.7097451769 0)
(-32.47763861 -0.6530946936 0)
(-32.48178477 -0.598224048 0)
(-32.48720812 -0.545298497 0)
(-32.49314126 -0.4942881371 0)
(-32.49975351 -0.4449000688 0)
(-32.50961645 -0.3989547623 0)
(-32.5181288 -0.3551025891 0)
(-32.51998012 -0.3119807732 0)
(-32.52783213 -0.2700473151 0)
(-32.53323403 -0.2347520428 0)
(-32.53627799 -0.2028568446 0)
(-32.53929308 -0.1676154266 0)
(-32.54488923 -0.1363845265 0)
(-32.54614259 -0.112173076 0)
(-32.54718043 -0.09058544504 0)
(-32.54638547 -0.07072446421 0)
(-32.54356455 -0.05240499919 0)
(-32.53855392 -0.0343705799 0)
(-32.53071889 -0.01780907171 0)
(-32.51919486 0.003589560092 0)
(-32.51124457 0.01537015276 0)
(-32.47164289 0.04952449 0)
(-32.51234378 -0.06247019751 0)
(-32.53711348 -0.01642894199 0)
(-32.55195762 -0.00426107923 0)
(-32.56051451 0.02340899861 0)
(-32.5670744 0.04399698814 0)
(-32.57225953 0.06719568791 0)
(-32.57637451 0.09028253142 0)
(-32.5795422 0.1148796734 0)
(-32.58164499 0.1408565531 0)
(-32.58156597 0.1691963738 0)
(-32.57904947 0.199895637 0)
(-32.57823908 0.2344461603 0)
(-32.57682076 0.2714370285 0)
(-32.57705007 0.3111676855 0)
(-32.5772299 0.3535346417 0)
(-32.57394343 0.3983908703 0)
(-32.57253659 0.4462068298 0)
(-32.57223034 0.4969409027 0)
(-32.57232406 0.5499612519 0)
(-32.57313564 0.605322696 0)
(-32.57470107 0.6632275869 0)
(-32.57734923 0.7236470862 0)
(-32.58151185 0.7865143292 0)
(-32.58757344 0.8517511834 0)
(-32.59584761 0.9192720216 0)
(-32.60653811 0.9889921446 0)
(-32.61962386 1.060845974 0)
(-32.634898 1.134783864 0)
(-32.65189603 1.210787874 0)
(-32.6699428 1.288848256 0)
(-32.68824767 1.368963477 0)
(-32.70582278 1.451131005 0)
(-32.72149709 1.53532356 0)
(-32.73402978 1.621487354 0)
(-32.7422242 1.709549869 0)
(-32.74501423 1.7994272 0)
(-32.74151561 1.891034438 0)
(-32.73102743 1.984312051 0)
(-32.7129299 2.079299144 0)
(-32.6863906 2.17623258 0)
(-32.65007449 2.275577533 0)
(-32.60240266 2.378105351 0)
(-32.54138842 2.484931556 0)
(-32.46249437 2.596992454 0)
(-32.35398361 2.715397395 0)
(-32.18441516 2.840607986 0)
(-31.86594602 2.971549033 0)
(-31.19518166 3.101624609 0)
(-29.82137947 3.216439808 0)
(-27.49033485 3.282234291 0)
(-24.33246868 3.306306852 0)
(-20.69298678 3.39326179 0)
(-17.04995505 3.599290671 0)
(-14.04806726 3.794700709 0)
(-12.02904755 3.715051253 0)
(-10.91539567 3.2859751 0)
(-10.39490496 2.627074272 0)
(-10.15313885 1.936611396 0)
(-10.04248041 1.280631638 0)
(-10.00965259 0.6685234021 0)
(-10.04085957 0.08654251686 0)
(-10.14538466 -0.4814998698 0)
(-10.36123078 -1.036331489 0)
(-10.77930189 -1.541646977 0)
(-11.57320241 -1.90673753 0)
(-12.97974689 -2.010113274 0)
(-15.14947288 -1.837369963 0)
(-17.97395099 -1.534035819 0)
(-21.12885193 -1.279345031 0)
(-24.31175394 -1.140919669 0)
(-27.26407118 -1.085435539 0)
(-29.68605641 -1.075759923 0)
(-31.24514637 -1.146898681 0)
(-32.0116526 -1.245067181 0)
(-32.32683109 -1.346259905 0)
(-32.45723072 -1.416298674 0)
(-32.52932106 -1.473011285 0)
(-32.55814869 -1.515711761 0)
(-32.60433568 -1.533153655 0)
(-32.65779949 -1.534966258 0)
(-32.67541252 -1.522263703 0)
(-32.68189862 -1.501628715 0)
(-32.68322678 -1.472200484 0)
(-32.67995759 -1.435474136 0)
(-32.6725462 -1.392748681 0)
(-32.66145646 -1.345111563 0)
(-32.64734363 -1.293546989 0)
(-32.6310852 -1.238913838 0)
(-32.613691 -1.181948742 0)
(-32.59616743 -1.123271421 0)
(-32.57939872 -1.063407157 0)
(-32.56416199 -1.002820768 0)
(-32.55113954 -0.941927769 0)
(-32.54077166 -0.8811152444 0)
(-32.53324903 -0.820763112 0)
(-32.52853181 -0.7612265364 0)
(-32.52635151 -0.7028338189 0)
(-32.5263493 -0.6458863532 0)
(-32.52809535 -0.5906439788 0)
(-32.53112878 -0.5373369697 0)
(-32.53514863 -0.4861574474 0)
(-32.53994744 -0.4372827362 0)
(-32.54486255 -0.3908835476 0)
(-32.5493767 -0.3467774892 0)
(-32.55436153 -0.3046443116 0)
(-32.55926013 -0.2656683345 0)
(-32.5645207 -0.2297919114 0)
(-32.56527799 -0.1960086848 0)
(-32.56694753 -0.1650405103 0)
(-32.57077374 -0.1368906683 0)
(-32.57352306 -0.1119778284 0)
(-32.57313087 -0.09004946367 0)
(-32.57078929 -0.06992750735 0)
(-32.5669976 -0.05150924296 0)
(-32.56149664 -0.03327354386 0)
(-32.55435353 -0.01695902363 0)
(-32.54537832 0.006030706447 0)
(-32.53455133 0.01539556582 0)
(-32.50243395 0.0543324205 0)
(-32.53058804 -0.05481201261 0)
(-32.55930653 -0.01281060088 0)
(-32.56770629 0.000213999251 0)
(-32.57588883 0.02721142157 0)
(-32.58303365 0.04732208328 0)
(-32.58951071 0.07018079708 0)
(-32.59522064 0.0928752811 0)
(-32.60014007 0.11717475 0)
(-32.60426053 0.1430705597 0)
(-32.60802595 0.1711697066 0)
(-32.61190754 0.2023326356 0)
(-32.61483366 0.2358844387 0)
(-32.61766461 0.2725829178 0)
(-32.62023325 0.3117788796 0)
(-32.62165972 0.3527684188 0)
(-32.62372389 0.3969101337 0)
(-32.62554229 0.4443925142 0)
(-32.6276836 0.4943587246 0)
(-32.63021346 0.5466525293 0)
(-32.63303311 0.6013687098 0)
(-32.63655762 0.6585818805 0)
(-32.64119439 0.7183373695 0)
(-32.64730494 0.780608855 0)
(-32.6552185 0.8453366089 0)
(-32.66521102 0.9124485092 0)
(-32.67747299 0.9818668834 0)
(-32.69207169 1.053520249 0)
(-32.70888086 1.127360452 0)
(-32.72755368 1.203367549 0)
(-32.74747727 1.28155484 0)
(-32.7677617 1.36194072 0)
(-32.78730857 1.444525604 0)
(-32.80489052 1.529298409 0)
(-32.81923487 1.616245276 0)
(-32.82911241 1.705357953 0)
(-32.83340963 1.796649162 0)
(-32.83116401 1.89017845 0)
(-32.82155906 1.986091257 0)
(-32.80391234 2.084680435 0)
(-32.77774126 2.186489665 0)
(-32.74286723 2.292478437 0)
(-32.69907451 2.404020306 0)
(-32.64506354 2.522818081 0)
(-32.57670543 2.65068302 0)
(-32.48309538 2.78996376 0)
(-32.33421911 2.94223506 0)
(-32.03805162 3.11033003 0)
(-31.36898679 3.28322633 0)
(-29.96971249 3.450254411 0)
(-27.58597235 3.573057743 0)
(-24.39872599 3.607929859 0)
(-20.82551845 3.676433404 0)
(-17.27294792 3.85792223 0)
(-14.16542432 4.079690365 0)
(-11.87747284 4.146670154 0)
(-10.43353282 3.885865777 0)
(-9.662801586 3.302427575 0)
(-9.334546058 2.49954786 0)
(-9.227995832 1.608222798 0)
(-9.223075717 0.7018233589 0)
(-9.28275112 -0.1867298339 0)
(-9.423615552 -1.031528495 0)
(-9.718146274 -1.786342258 0)
(-10.30774948 -2.367098824 0)
(-11.38666157 -2.66574448 0)
(-13.11014923 -2.637705406 0)
(-15.47683977 -2.361576984 0)
(-18.30630575 -2.003563762 0)
(-21.37147116 -1.695257953 0)
(-24.46868901 -1.464923969 0)
(-27.36668908 -1.302272045 0)
(-29.70778896 -1.216790299 0)
(-31.15885267 -1.209303807 0)
(-31.89579137 -1.292641861 0)
(-32.21653109 -1.375000379 0)
(-32.36453238 -1.437263149 0)
(-32.46985742 -1.502807623 0)
(-32.52288553 -1.525489406 0)
(-32.58302814 -1.532833146 0)
(-32.66041197 -1.53607857 0)
(-32.68890724 -1.524706197 0)
(-32.70481274 -1.503571268 0)
(-32.71431793 -1.47292546 0)
(-32.71816047 -1.434787759 0)
(-32.71656099 -1.390611467 0)
(-32.71006937 -1.341641203 0)
(-32.69952938 -1.288906292 0)
(-32.68598893 -1.233273262 0)
(-32.67060604 -1.175477727 0)
(-32.65455038 -1.116146658 0)
(-32.63890596 -1.055808199 0)
(-32.6245649 -0.994906861 0)
(-32.61215042 -0.9338459719 0)
(-32.60203129 -0.8730143347 0)
(-32.59434861 -0.8127822305 0)
(-32.58905105 -0.753502445 0)
(-32.58595355 -0.6954956119 0)
(-32.58475998 -0.6390392671 0)
(-32.58510684 -0.5843725713 0)
(-32.58659012 -0.5316838882 0)
(-32.58875887 -0.4811037715 0)
(-32.59120886 -0.4327670741 0)
(-32.59375796 -0.3868630525 0)
(-32.59579755 -0.3434253583 0)
(-32.59750702 -0.3023705646 0)
(-32.598724 -0.2637843683 0)
(-32.59935119 -0.2284592293 0)
(-32.59966612 -0.1958702047 0)
(-32.59868311 -0.1647892656 0)
(-32.59663345 -0.1366164001 0)
(-32.5937037 -0.1118981154 0)
(-32.59018527 -0.08985273945 0)
(-32.58574006 -0.06969147658 0)
(-32.5803145 -0.05118137824 0)
(-32.57416653 -0.03284694558 0)
(-32.56673238 -0.01707813949 0)
(-32.55840109 0.006699258152 0)
(-32.54866445 0.01541326135 0)
(-32.5185691 0.0546068202 0)
(-32.56389401 -0.06745685839 0)
(-32.58700021 -0.02392437837 0)
(-32.59704415 -0.01012156624 0)
(-32.60426117 0.01765112898 0)
(-32.61058973 0.0384995178 0)
(-32.6166611 0.06213899244 0)
(-32.62259187 0.08570001196 0)
(-32.62848407 0.1107356231 0)
(-32.63423447 0.1373423976 0)
(-32.63944112 0.1660061224 0)
(-32.64391736 0.196860711 0)
(-32.64853038 0.2303736271 0)
(-32.65296058 0.2662949127 0)
(-32.65780164 0.304748701 0)
(-32.66269662 0.3460774872 0)
(-32.66681885 0.3900854776 0)
(-32.67111893 0.4367338595 0)
(-32.67574038 0.4860742041 0)
(-32.68073412 0.5379866606 0)
(-32.68630734 0.5924328171 0)
(-32.69266533 0.6494271503 0)
(-32.70010665 0.708947624 0)
(-32.70897449 0.7709576704 0)
(-32.71960349 0.8354088327 0)
(-32.73227861 0.9022475255 0)
(-32.74718958 0.9714220732 0)
(-32.76438048 1.042888398 0)
(-32.78371116 1.116615591 0)
(-32.80481413 1.192588955 0)
(-32.82708127 1.270806612 0)
(-32.84967212 1.351280788 0)
(-32.87153249 1.434034645 0)
(-32.8914588 1.519094945 0)
(-32.9082009 1.606493 0)
(-32.92057339 1.696276289 0)
(-32.92755143 1.78853108 0)
(-32.92833725 1.883419037 0)
(-32.92239127 1.981233351 0)
(-32.90941836 2.082482307 0)
(-32.88927879 2.187984581 0)
(-32.86180017 2.29893923 0)
(-32.82652615 2.416951827 0)
(-32.78212791 2.544222238 0)
(-32.72457913 2.683424087 0)
(-32.64260668 2.838145345 0)
(-32.50391174 3.011700472 0)
(-32.20932626 3.205402994 0)
(-31.53550222 3.407518383 0)
(-30.10844998 3.601147145 0)
(-27.62859889 3.696524268 0)
(-24.4143568 3.721056405 0)
(-20.90199556 3.753149791 0)
(-17.41981409 3.837338262 0)
(-14.30428624 3.928011994 0)
(-11.79436396 3.945940007 0)
(-10.02857937 3.728548628 0)
(-8.971400132 3.20899382 0)
(-8.444417801 2.428179066 0)
(-8.240137493 1.481160946 0)
(-8.215217525 0.4606707034 0)
(-8.312270933 -0.5576243263 0)
(-8.552553451 -1.502010624 0)
(-9.03150828 -2.287238472 0)
(-9.900720283 -2.818171601 0)
(-11.30745568 -3.02841002 0)
(-13.30510899 -2.944441771 0)
(-15.81058251 -2.675588413 0)
(-18.64316845 -2.338712167 0)
(-21.65574654 -2.026158653 0)
(-24.69039356 -1.755592957 0)
(-27.51662183 -1.541649804 0)
(-29.77562165 -1.412100172 0)
(-31.17423415 -1.39320786 0)
(-31.85861411 -1.43747801 0)
(-32.19018922 -1.494801091 0)
(-32.35856841 -1.538534097 0)
(-32.44704249 -1.567340121 0)
(-32.54624991 -1.577490562 0)
(-32.61358828 -1.56480304 0)
(-32.67063297 -1.553714188 0)
(-32.70746511 -1.538723944 0)
(-32.73336788 -1.513470071 0)
(-32.75104459 -1.479282577 0)
(-32.76124254 -1.438082365 0)
(-32.76466607 -1.391334628 0)
(-32.7621478 -1.340204014 0)
(-32.75470471 -1.285659848 0)
(-32.74351342 -1.228516405 0)
(-32.72983328 -1.169461178 0)
(-32.71490031 -1.10907753 0)
(-32.69982396 -1.047868767 0)
(-32.68552105 -0.9862814586 0)
(-32.67268367 -0.924717321 0)
(-32.66175367 -0.8635413383 0)
(-32.65293173 -0.8030917583 0)
(-32.6462136 -0.7436803916 0)
(-32.64142936 -0.6855930035 0)
(-32.63830357 -0.6290888439 0)
(-32.63649844 -0.5743955509 0)
(-32.6356548 -0.5217093169 0)
(-32.63543922 -0.471199742 0)
(-32.63555762 -0.422997206 0)
(-32.63567178 -0.3772022124 0)
(-32.63552897 -0.3338601651 0)
(-32.63495207 -0.2930425345 0)
(-32.63404267 -0.2549305727 0)
(-32.63241997 -0.219425589 0)
(-32.62938671 -0.1865387674 0)
(-32.62612802 -0.1565318079 0)
(-32.62292731 -0.1290501366 0)
(-32.61913716 -0.103877268 0)
(-32.61428121 -0.08092741739 0)
(-32.60874699 -0.05977358103 0)
(-32.60277498 -0.04029193857 0)
(-32.59631193 -0.02100050255 0)
(-32.58967668 -0.004204883168 0)
(-32.58266637 0.01985599594 0)
(-32.57414225 0.03085407321 0)
(-32.54959559 0.06986652717 0)
(-32.58221522 -0.06946349614 0)
(-32.60660382 -0.02776239952 0)
(-32.61398263 -0.01495880388 0)
(-32.62143684 0.01171999861 0)
(-32.62871816 0.03195162747 0)
(-32.63637278 0.05511889111 0)
(-32.64418925 0.07837865846 0)
(-32.65205699 0.1033245225 0)
(-32.65982052 0.1298405191 0)
(-32.66761703 0.1583730708 0)
(-32.67561022 0.1892196916 0)
(-32.68349861 0.2225370154 0)
(-32.6913014 0.2584892577 0)
(-32.69871471 0.2969722843 0)
(-32.70581684 0.3378677005 0)
(-32.71295822 0.3814048667 0)
(-32.72007138 0.4276648288 0)
(-32.72731111 0.4765427442 0)
(-32.73483617 0.5279796299 0)
(-32.74281743 0.5819528298 0)
(-32.75153391 0.6384502962 0)
(-32.76130412 0.6974649092 0)
(-32.77245938 0.7589739293 0)
(-32.78531997 0.8229411463 0)
(-32.80016448 0.8893221308 0)
(-32.81719194 0.9580713067 0)
(-32.83647492 1.029150324 0)
(-32.85790677 1.102535237 0)
(-32.88115654 1.178221442 0)
(-32.90563488 1.256224599 0)
(-32.93049113 1.336574345 0)
(-32.95465621 1.419309273 0)
(-32.97692207 1.504478697 0)
(-32.99604696 1.592150111 0)
(-33.01086917 1.682424598 0)
(-33.0204075 1.775463605 0)
(-33.0239327 1.871529282 0)
(-33.02100692 1.971039249 0)
(-33.01150191 2.074637759 0)
(-32.99561206 2.183282963 0)
(-32.97382622 2.298372942 0)
(-32.94665601 2.42184417 0)
(-32.91378653 2.556316546 0)
(-32.87217224 2.704834455 0)
(-32.81150847 2.871407995 0)
(-32.69919238 3.058753596 0)
(-32.42557012 3.268735157 0)
(-31.74953026 3.481733279 0)
(-30.26996498 3.675234871 0)
(-27.69541505 3.757545208 0)
(-24.41913566 3.74246459 0)
(-20.90564237 3.708227157 0)
(-17.42978702 3.612548856 0)
(-14.26381208 3.503945557 0)
(-11.6471835 3.364554634 0)
(-9.673143123 3.090493463 0)
(-8.356747994 2.604223976 0)
(-7.605320854 1.890148546 0)
(-7.261094199 0.9989736731 0)
(-7.189362586 0.01422410424 0)
(-7.329577413 -0.9739637523 0)
(-7.705253337 -1.87220218 0)
(-8.411355704 -2.584751741 0)
(-9.571821287 -3.03397319 0)
(-11.26796685 -3.195729945 0)
(-13.48129123 -3.118208853 0)
(-16.09736368 -2.896129208 0)
(-18.9543096 -2.599168777 0)
(-21.95267666 -2.295511604 0)
(-24.95309025 -1.999677343 0)
(-27.71490501 -1.742359837 0)
(-29.85821985 -1.566989394 0)
(-31.13410188 -1.509147034 0)
(-31.77465266 -1.53047426 0)
(-32.10188399 -1.569546784 0)
(-32.29581422 -1.609180117 0)
(-32.42244495 -1.619260984 0)
(-32.53405095 -1.61422894 0)
(-32.61527404 -1.599397763 0)
(-32.68062338 -1.581261201 0)
(-32.72857951 -1.559836056 0)
(-32.76425601 -1.528543706 0)
(-32.78971378 -1.489363257 0)
(-32.80606694 -1.443974681 0)
(-32.8143105 -1.393710188 0)
(-32.81552448 -1.339646851 0)
(-32.81092096 -1.282672481 0)
(-32.80182907 -1.223530775 0)
(-32.78963105 -1.162850947 0)
(-32.77566916 -1.1011699 0)
(-32.76114765 -1.038949568 0)
(-32.74705042 -0.9765929589 0)
(-32.73409304 -0.9144625452 0)
(-32.72272189 -0.8528942837 0)
(-32.71314296 -0.7922016383 0)
(-32.70536498 -0.7326755543 0)
(-32.69925057 -0.674580502 0)
(-32.69455881 -0.6181502217 0)
(-32.69098502 -0.5635869041 0)
(-32.68819294 -0.5110612713 0)
(-32.68583909 -0.4607158549 0)
(-32.68359837 -0.4126825793 0)
(-32.68121409 -0.3670726262 0)
(-32.67846106 -0.3239504473 0)
(-32.67521469 -0.2833401027 0)
(-32.67131623 -0.2452878438 0)
(-32.66675942 -0.2099292545 0)
(-32.66171509 -0.177128613 0)
(-32.65582078 -0.1466491368 0)
(-32.64912241 -0.1187181944 0)
(-32.6418929 -0.09336225495 0)
(-32.63440674 -0.0702630848 0)
(-32.6266336 -0.0488810461 0)
(-32.61879687 -0.02917170628 0)
(-32.61121517 -0.009582350904 0)
(-32.60413487 0.007275517922 0)
(-32.59735922 0.03067360024 0)
(-32.59094853 0.04069264998 0)
(-32.56592623 0.07946164952 0)
(-32.61504933 -0.08941891156 0)
(-32.63491426 -0.04779641946 0)
(-32.6421077 -0.03306751853 0)
(-32.6485005 -0.005524241944 0)
(-32.65490669 0.01596871009 0)
(-32.66223073 0.04016257082 0)
(-32.67035658 0.06433581182 0)
(-32.67922275 0.08995736407 0)
(-32.68864209 0.1171215614 0)
(-32.69832125 0.1462511737 0)
(-32.70799255 0.1775017848 0)
(-32.71770281 0.2109951752 0)
(-32.72744919 0.2467957323 0)
(-32.73730826 0.2850448519 0)
(-32.74712193 0.3258608862 0)
(-32.75677032 0.369230712 0)
(-32.7664049 0.4151530056 0)
(-32.77617033 0.4636311038 0)
(-32.78623014 0.5146478941 0)
(-32.79679617 0.5681906748 0)
(-32.80811391 0.6242500746 0)
(-32.82047434 0.6828076679 0)
(-32.83419457 0.74383862 0)
(-32.84958884 0.8073124924 0)
(-32.86693376 0.8731959672 0)
(-32.88642739 0.9414567671 0)
(-32.90814288 1.012068555 0)
(-32.9319795 1.085016348 0)
(-32.95761605 1.160300429 0)
(-32.98448087 1.237938251 0)
(-33.0117492 1.317965344 0)
(-33.03837797 1.400434423 0)
(-33.06318543 1.485415231 0)
(-33.08496615 1.573000509 0)
(-33.10261934 1.663322043 0)
(-33.11526729 1.756579512 0)
(-33.12234842 1.853084426 0)
(-33.12367996 1.953321255 0)
(-33.119489 2.058028471 0)
(-33.11039649 2.168293295 0)
(-33.09729946 2.285655882 0)
(-33.08105321 2.412170811 0)
(-33.06166552 2.550579271 0)
(-33.03631212 2.704051216 0)
(-32.99416804 2.876756901 0)
(-32.89943274 3.070752044 0)
(-32.63015311 3.285841935 0)
(-31.93817018 3.499081069 0)
(-30.39055211 3.676333558 0)
(-27.68716535 3.717066084 0)
(-24.37332426 3.6713527 0)
(-20.76661331 3.501976082 0)
(-17.23253626 3.265246881 0)
(-14.04969509 3.00843257 0)
(-11.37438032 2.731494871 0)
(-9.271257502 2.369657344 0)
(-7.773593911 1.870190971 0)
(-6.841193101 1.205307657 0)
(-6.368677452 0.3970471718 0)
(-6.250858074 -0.4920770319 0)
(-6.438146824 -1.37919351 0)
(-6.954782921 -2.172743131 0)
(-7.87989382 -2.787008808 0)
(-9.296099938 -3.167150363 0)
(-11.22835691 -3.310090846 0)
(-13.61622056 -3.261102406 0)
(-16.33294724 -3.084399318 0)
(-19.2388656 -2.826865949 0)
(-22.25285748 -2.536977014 0)
(-25.23965162 -2.23417442 0)
(-27.94719105 -1.960399048 0)
(-29.9986307 -1.772495672 0)
(-31.19402418 -1.697830241 0)
(-31.7939457 -1.688491274 0)
(-32.10914878 -1.694620407 0)
(-32.30327096 -1.702189826 0)
(-32.4417927 -1.696752308 0)
(-32.55002524 -1.67506448 0)
(-32.63548262 -1.651593012 0)
(-32.70497799 -1.623035712 0)
(-32.76071008 -1.589692011 0)
(-32.80372882 -1.549300087 0)
(-32.83518358 -1.503159616 0)
(-32.85632936 -1.452284573 0)
(-32.86836428 -1.397605733 0)
(-32.87252147 -1.339945133 0)
(-32.87013519 -1.280025781 0)
(-32.86263692 -1.218474674 0)
(-32.85149379 -1.155831458 0)
(-32.83811368 -1.092560958 0)
(-32.82374709 -1.029068364 0)
(-32.80941348 -0.9657142321 0)
(-32.79586498 -0.9028253844 0)
(-32.78358407 -0.8407015071 0)
(-32.77280963 -0.7796192365 0)
(-32.76358088 -0.7198329469 0)
(-32.7557858 -0.661574099 0)
(-32.74920987 -0.605050256 0)
(-32.74357806 -0.5504438715 0)
(-32.73859022 -0.4979121571 0)
(-32.73394968 -0.4475870009 0)
(-32.7293808 -0.3995690621 0)
(-32.72462274 -0.3539316513 0)
(-32.71946052 -0.3107338672 0)
(-32.71374883 -0.2700351074 0)
(-32.70743438 -0.2318772225 0)
(-32.70043564 -0.196221302 0)
(-32.69266013 -0.1630833197 0)
(-32.68443559 -0.1324776713 0)
(-32.67593868 -0.1042026932 0)
(-32.66716721 -0.07805150614 0)
(-32.65822879 -0.05390511845 0)
(-32.64949992 -0.03140345769 0)
(-32.64127476 -0.01042103276 0)
(-32.63366739 0.0104396237 0)
(-32.62710095 0.02867504108 0)
(-32.62130392 0.05290769965 0)
(-32.61527016 0.06520514719 0)
(-32.59688296 0.1025749802 0)
(-32.63238315 -0.09985616596 0)
(-32.65391918 -0.05975140444 0)
(-32.66035749 -0.04644220562 0)
(-32.66750298 -0.0199615209 0)
(-32.67526152 0.0008985658191 0)
(-32.6842058 0.02477334824 0)
(-32.69411717 0.04899024262 0)
(-32.70483413 0.07490130071 0)
(-32.71610239 0.1023718669 0)
(-32.72783126 0.1317067317 0)
(-32.73996526 0.163088252 0)
(-32.75233224 0.1967119833 0)
(-32.76475946 0.2326811715 0)
(-32.77708959 0.2710085975 0)
(-32.78932402 0.3117129434 0)
(-32.80150919 0.3548607105 0)
(-32.81369176 0.4004868404 0)
(-32.82597771 0.4485966629 0)
(-32.83852329 0.4991860261 0)
(-32.85153415 0.5522492225 0)
(-32.8652704 0.6077802721 0)