/*--------------------------------*- C++ -*----------------------------------*\
| =========                 |                                                 |
| \\      /  F ield         | OpenFOAM: The Open Source CFD Toolbox           |
|  \\    /   O peration     | Version:  v1806                                 |
|   \\  /    A nd           | Web:      www.OpenFOAM.com                      |
|    \\/     M anipulation  |                                                 |
\*---------------------------------------------------------------------------*/
FoamFile
{
    version     2.0;
    format      ascii;
    class       volScalarField;
    location    "90";
    object      epsilon;
}
// * * * * * * * * * * * * * * * * * * * * * * * * * * * * * * * * * * * * * //

dimensions      [0 2 -3 0 0 0 0];


internalField   nonuniform List<scalar> 
64485
(
1008.117345
2574.389413
2976.22486
3347.201535
3609.993767
3763.56793
3815.082576
3775.885213
3658.748897
3476.635711
3243.074718
2972.039467
2677.61066
2373.364238
2072.080308
1784.715044
1519.82698
1283.304313
1078.331848
905.6184391
763.8486998
650.2716613
561.3211315
493.1711849
442.1593794
405.0457592
379.1015243
362.3541005
353.1497574
350.1944178
352.5965804
359.7749318
371.3882887
387.285193
407.4700252
432.0820101
461.3838622
495.7573624
535.703585
581.8456841
634.9321087
695.8378449
765.5608222
845.2100717
935.9816994
1039.118466
1155.849014
1287.303942
1434.408246
1597.753472
1777.458004
1973.029813
2183.252112
2406.118726
2638.816883
2877.754192
3118.729543
3357.187424
3588.479467
3808.142973
4012.17328
4197.214572
4360.619213
4500.507641
4616.021654
4706.646035
4772.473514
4814.216309
4833.100807
4831.024568
4811.006266
4777.9662
4739.666864
4707.136581
4693.306908
4708.490541
4753.725314
4819.402804
4885.215998
4927.401083
4926.685963
4881.615786
4818.966934
4765.26511
4737.018785
4737.009044
4757.396278
4785.907585
4811.772497
4827.091952
4826.597863
4806.983587
4766.189353
4702.893444
4616.271892
4506.010231
4372.447079
4216.191441
4038.683764
3842.246827
3629.87846
3405.232027
3172.476066
2936.046221
2700.381412
2469.644733
2247.457784
2036.762568
1839.753755
1657.853772
1491.761695
1341.551843
1206.79978
1086.716176
980.273445
886.3153665
803.6450059
731.0901878
667.5485098
612.0153429
563.5987908
521.5254831
485.1406437
453.9053391
427.3933131
405.2894603
387.3918249
373.619052
364.0254478
358.8260948
358.4345601
363.5155108
375.0026845
394.0269651
422.2091711
461.6268695
514.8580479
584.9518486
675.2954654
789.3506765
930.2541074
1100.309475
1300.435367
1529.656357
1784.728947
2059.967102
2347.289912
2636.456156
2915.732476
3172.327639
3392.777095
3563.308863
3670.137349
3699.485195
3639.237147
3482.353748
3238.44048
3012.154741
1616.45461
806.6066266
352.1094258
455.8671102
582.0845384
698.062503
793.7374214
866.1004083
913.7375594
937.4395573
938.7184092
920.1202215
884.8934009
836.779883
779.7016889
717.4248508
653.3845765
590.4735003
530.9413734
476.3779466
427.759806
385.5393481
349.7552192
320.1465992
296.2595566
277.5386749
263.3941321
253.2773426
246.7039739
243.1776673
242.3001234
243.7637689
247.3389417
252.8622548
260.2266996
269.3737098
280.2871487
292.9889751
307.5362196
324.0188264
342.5578583
363.3034981
386.4322082
412.1423307
440.6473468
472.1660043
506.908604
545.0589755
586.7521287
632.0482628
680.9047397
733.1486682
788.4536949
846.3251743
906.0977043
966.947866
1027.917325
1087.95278
1145.963929
1200.878588
1251.693989
1297.519512
1337.604751
1371.356243
1398.368576
1418.387979
1431.231888
1436.869724
1435.439173
1427.267038
1412.984202
1393.723825
1371.399557
1348.979682
1330.508522
1320.457154
1322.127961
1335.59559
1356.716093
1377.993684
1391.219349
1390.452671
1376.401802
1357.194528
1341.731217
1336.14738
1342.094782
1357.354404
1377.805967
1399.327053
1418.686213
1433.703934
1443.060243
1446.021178
1442.207921
1431.449478
1413.717695
1389.147514
1357.937106
1320.391793
1277.006767
1228.43685
1175.481921
1119.06851
1060.213567
999.977372
939.4064283
879.4781582
821.0613527
764.8819593
711.5037827
661.3243585
614.5841
571.385301
531.7170552
495.4823648
462.5244424
432.6501691
405.6496198
381.3113491
359.4336889
339.8326456
322.3471377
306.8423499
293.2119402
281.3797641
271.3017075
262.9681547
256.4075646
251.6915781
248.9420099
248.3400046
250.1375734
254.6709083
262.30857
273.4752484
288.6712063
308.4385927
333.3292168
363.8508586
400.3942511
443.1426011
491.9689197
546.3300615
605.1704298
666.8513983
729.1236966
789.1598015
843.6679476
889.0013801
921.3627198
937.0592177
932.72341
905.6101465
853.7391805
776.7726789
677.0141389
563.3949569
483.5022121
1376.518951
582.4194011
270.0168853
355.1863897
458.8548458
554.3509541
633.7102454
695.2576246
737.9060804
762.0717876
768.4946265
758.7906737
735.2221047
700.5621311
657.8337988
610.0674502
560.0746002
510.2760352
462.6025046
418.4645006
378.7776593
344.0258443
314.3449196
289.6119279
269.5300422
253.7051801
241.7029779
233.1363232
227.5572289
224.5728653
223.8655797
225.1841125
228.3356885
233.1788045
239.6169552
247.5934976
257.0877244
268.1120699
280.7102521
294.9560659
310.9524636
328.8304731
348.7474096
370.8837373
395.4378402
422.6179111
452.6301997
485.6630437
521.866506
561.3280922
604.0459276
649.9018195
698.637602
749.8387472
802.9290921
857.1791069
911.7285914
965.6241395
1017.866542
1067.461493
1113.468168
1155.040741
1191.462139
1222.160108
1246.703639
1264.802924
1276.298402
1281.161636
1279.503845
1271.610204
1258.024686
1239.704269
1218.243702
1196.107073
1176.664766
1163.679444
1159.992964
1165.855599
1178.105438
1191.111072
1198.848142
1197.054155
1186.674278
1173.707191
1164.722565
1164.247589
1173.332602
1189.962507
1210.660628
1231.950973
1251.094062
1266.217958
1276.161664
1280.250254
1278.113941
1269.57646
1254.601807
1233.278923
1205.817292
1172.560175
1133.986905
1090.718244
1043.513114
993.2407668
940.8446805
887.2983081
833.5558395
780.503777
728.92056
679.4476034
632.5735872
588.6327031
547.8150148
510.1856908
475.7093454
444.2759495
415.7255173
389.8697278
366.5095679
345.4488306
326.5038095
309.5098223
294.3253063
280.8342284
268.9474819
258.6038551
249.7710578
242.4472163
236.6631747
232.4858856
230.0231175
229.4296945
230.9155804
234.7564603
241.2928691
250.8575287
263.842596
280.6655109
301.7385991
327.4221684
357.9628848
393.4186973
433.5757455
477.8655646
525.293972
574.3952693
623.2253822
669.4045398
710.2144795
742.7419785
764.0473042
771.3624949
762.2560761
734.8700891
687.8587697
621.1555774
536.2606095
440.4748623
371.9308781
1071.95054
406.0522773
235.4335965
322.9603142
428.4334854
525.9314914
607.0748634
670.5029277
715.4669372
742.3497596
751.703478
744.9238303
724.0718983
691.7774041
650.9929171
604.7284006
555.8198005
506.7422676
459.494108
415.5547805
375.9035145
341.0788641
311.261764
286.3642768
266.1144801
250.1381513
238.0503445
229.4147339
223.7754542
220.7522805
220.0336037
221.3705683
224.5708411
229.4925091
236.0386099
244.1526237
253.8150608
265.0411029
277.8791262
292.4098337
308.7456264
327.0297434
347.4345834
370.1584944
395.4202038
423.4499915
454.4767496
488.7102869
526.3187114
567.4014954
611.9598789
659.8674529
710.8448173
764.4427482
820.0379994
876.8444901
933.9405157
990.3101791
1044.894586
1096.646316
1144.580651
1187.818216
1225.615529
1257.384809
1282.694862
1301.257747
1312.922166
1317.672503
1315.63362
1307.103637
1292.637154
1273.199804
1250.396557
1226.709734
1205.540839
1190.687394
1184.995908
1188.676666
1198.599276
1209.34912
1215.321051
1212.640553
1202.541363
1190.730342
1183.382394
1184.762605
1195.770087
1214.287831
1236.757408
1259.654375
1280.222041
1296.584669
1307.573279
1312.496622
1310.962022
1302.767782
1287.853937
1266.290089
1238.277319
1204.150621
1164.393155
1119.64622
1070.694769
1018.444232
963.8843642
908.0430321
851.9342299
796.5064615
742.5977476
690.9021469
641.9508117
596.1082759
553.5823086
514.4439841
478.6538645
446.0903118
416.576706
389.9053986
365.8572857
344.2167578
324.7823778
307.3739895
291.8370854
278.0452657
265.9015353
255.3390733
246.3219959
238.8465315
232.9429441
228.6784674
226.1614475
225.5468362
227.0431958
230.9214983
237.5272726
247.2315486
260.4040254
277.4564311
298.790712
324.748795
355.5491512
391.20992
431.4648813
475.680942
522.7892003
571.2443501
619.0267237
663.6987662
702.5170709
732.5812366
751.0175584
755.1769771
742.7685504
712.0954318
661.8315986
591.9555379
503.4952752
403.5204281
322.5265567
798.6330655
279.2088254
209.4023738
297.0724795
405.7655563
507.4898772
592.7316071
659.9322949
708.7174704
739.3149639
752.0946664
748.2474659
729.6838508
698.9599558
659.0348492
612.9991369
563.8094787
514.0758647
465.9269845
420.9558418
380.2329792
344.365263
313.5826371
287.8291719
266.8485386
250.3061686
237.8055167
228.8474443
222.9865856
219.8425805
219.0998278
220.5042935
223.8587129
229.0172963
235.8807567
244.3921498
254.5337348
266.3248487
279.8206303
295.1113149
312.321705
331.6103055
353.1674716
377.2117718
403.9836405
433.7353207
466.7161648
503.1526374
543.2229443
587.0271296
634.5546939
685.6530931
740.0015549
797.0950685
856.2428229
916.5836578
977.1185526
1036.75738
1094.374589
1148.866932
1199.206483
1244.483656
1283.937382
1316.969215
1343.142884
1362.17644
1373.932016
1378.407971
1375.74377
1366.254363
1350.517208
1329.535008
1304.976315
1279.424467
1256.415647
1239.877505
1232.704864
1235.016265
1243.519811
1252.787621
1257.436563
1253.858663
1243.616648
1232.334204
1226.028116
1228.88545
1241.728795
1262.304851
1286.886942
1311.803682
1334.197956
1352.138378
1364.42665
1370.351359
1369.500059
1361.650093
1346.720238
1324.759239
1295.951472
1260.62793
1219.276315
1172.546616
1121.244702
1066.309972
1008.779491
949.7408
890.2775255
831.4138346
774.0643854
718.9955256
666.8016253
617.8978859
572.528354
530.7858405
492.6393822
457.9648116
426.5747037
398.2450881
372.7374992
349.815948
329.2591221
310.8685416
294.4735829
279.9342909
267.1428167
256.0241855
246.5369696
238.6743157
232.4656763
227.9795013
225.3270567
224.6674267
226.2136733
230.2400522
237.0900657
247.1803621
260.8977882
278.6424169
300.8163591
327.7513552
359.6429452
396.4698529
437.9066191
483.2382955
531.2903304
580.3909052
628.3809506
672.6837994
710.4356734
738.6634668
754.4804078
755.284947
738.8755197
703.6864567
648.4556873
573.2284474
478.9467791
373.1285642
282.7525818
571.8089645
200.4859764
190.280402
275.4715427
386.3619854
492.0000884
581.1118206
651.7383697
704.051389
738.1197246
754.1577526
753.1335273
736.7859451
707.5770587
668.4592576
622.5903598
573.0435083
522.5667984
473.4254478
427.3318557
385.4521318
348.4632928
316.646129
289.9780986
268.2295371
251.1213595
238.1535737
228.8398831
222.7398306
219.4708477
218.7121014
220.2036226
223.7428087
229.1798771
236.4133603
245.3862726
256.0832283
268.5285315
282.7850823
298.9538062
317.1731866
337.618337
360.4988911
386.0548231
414.549163
446.256512
481.4463556
520.3605292
563.184896
610.016374
660.8278238
715.4347213
773.4686011
834.3624886
897.3526269
961.4986957
1025.721818
1088.856616
1149.711163
1207.1275
1260.035797
1307.496935
1348.730595
1383.128512
1410.253679
1429.829673
1441.727473
1445.956389
1442.668748
1432.195893
1415.139908
1392.546054
1366.157451
1338.675026
1313.786545
1295.55414
1286.894762
1287.778471
1294.716925
1302.290364
1305.426254
1300.891839
1290.597223
1280.002037
1274.901718
1279.382447
1294.194588
1316.954923
1343.764546
1370.795877
1395.087665
1414.652046
1428.260829
1435.18221
1434.985047
1427.427852
1412.411162
1389.967149
1360.266875
1323.633384
1280.555113
1231.692323
1177.870893
1120.062339
1059.349184
996.8774845
933.8005188
871.219682
810.1295495
751.3736168
695.6154654
643.3274766
594.7963527
550.1423263
509.3475178
472.2885843
438.7694025
408.5506793
381.3746924
356.9845203
335.1379833
315.6170356
298.2335913
282.8327989
269.2946942
257.5350198
247.5058432
239.196463
232.6349692
227.8907142
225.0778284
224.3597677
225.9546947
230.1412781
237.2642567
247.7389671
262.0281489
280.5070588
303.5718656
331.5427873
364.5911979
402.6545898
445.345557
491.86323
540.9212476
590.7139044
638.9359898
682.8698128
719.5384938
745.9060411
759.0880662
756.5515892
736.2085751
696.6266481
636.6584261
556.2896562
456.6046556
345.8830665
251.465768
401.5086876
158.9061087
176.693562
257.8067511
369.6011142
478.8342205
571.3651242
644.8659004
700.120916
737.1311017
756.0226736
757.5522177
743.275103
715.5309266
677.2326524
631.5785951
581.7400704
530.5916217
480.5289221
433.3809587
390.4079739
352.3546054
319.5532162
292.0138758
269.6088675
251.9333765
238.5022989
228.8409514
222.5114362
219.1283379
218.3656484
219.9578071
223.6973445
229.4310364
237.0558659
246.5155376
257.7978777
270.9331656
285.9932426
303.0910917
322.3804336
344.0547218
368.3447347
395.5137743
425.8493228
459.6499535
497.2064332
538.7764
584.5528518
634.6279359
688.9550748
747.3139683
809.284007
874.2316298
941.3158454
1009.513607
1077.663495
1144.523023
1208.832644
1269.378737
1325.048611
1374.872572
1418.050515
1453.962803
1482.167826
1502.39076
1514.508874
1518.540639
1514.650111
1503.18462
1484.771696
1460.502033
1432.198915
1402.687673
1375.808834
1355.742464
1345.386463
1344.511716
1349.419953
1354.788695
1356.03818
1350.504424
1340.438835
1330.963905
1327.500039
1333.954525
1350.997451
1376.136334
1405.320646
1434.579576
1460.852099
1482.094105
1497.047247
1504.959706
1505.38249
1498.056618
1482.866176
1459.829275
1429.107066
1391.018824
1346.055786
1294.888621
1238.363754
1177.485257
1113.381437
1047.257356
980.3369505
913.8006672
848.7258243
786.0368429
726.4709527
670.5623549
618.6447491
570.8693998
527.2341104
487.6178527
451.8162463
419.5742428
390.613781
364.6555067
341.4346548
320.7118365
302.2797774
285.9671239
271.6403488
259.2046351
248.6044355
239.8242449
232.8899728
227.8711728
224.8842445
224.0965334
225.7310018
230.0708007
237.4626577
248.317589
263.1088181
282.2900563
306.2062207
335.1650881
369.3131401
408.5458938
452.4134597
500.0291155
549.9945546
600.3720787
648.7160402
692.1794447
727.6926074
752.1867346
762.8149861
757.1426179
733.2152064
689.7064516
625.6144463
540.6904627
436.4144427
322.0817033
227.9940923
283.760173
145.2462276
168.9942719
243.6002476
354.6658022
467.5687904
563.3798768
639.4614387
697.1195206
736.487919
757.7140308
761.4019
748.9390475
722.5288408
685.0161608
639.6082526
589.5483789
537.8179288
486.930922
438.826436
394.854756
355.8218231
322.1136129
293.8589524
270.8249134
252.6020553
238.7290864
228.7406582
222.2002007
218.7193451
217.9673381
219.6736734
223.6267435
229.6706593
237.7016894
247.6651512
259.55313
273.403089
289.2972145
307.3621716
327.7687779
350.7309148
376.5027856
405.3734141
437.6571082
473.678571
513.7515394
558.1503887
607.0751605
660.6119262
718.6921144
781.0560077
847.226494
916.4988409
987.95051
1060.472047
1132.816574
1203.662261
1271.680139
1335.599221
1394.26204
1446.665946
1491.988179
1529.595225
1559.038937
1580.04365
1592.490043
1596.40341
1591.95805
1579.516769
1559.733147
1533.745421
1503.461085
1471.834433
1442.856733
1420.803635
1408.501566
1405.459947
1407.765781
1410.312438
1409.232718
1402.681454
1393.213658
1385.398851
1384.092995
1392.927645
1412.485893
1440.197272
1471.889729
1503.467158
1531.777795
1554.725104
1571.021302
1579.894093
1580.876587
1573.693299
1558.213947
1534.445412
1502.541752
1462.820429
1415.777598
1362.096928
1302.647488
1238.467492
1170.732269
1100.70708
1029.688013
958.9366727
889.6160369
822.7351778
759.1092685
699.3387774
643.8085123
592.7041073
546.0413223
503.702547
465.4751464
431.0874072
400.2393596
372.6272395
347.9615346
325.9793347
306.4520997
289.1900652
274.0444332
260.9083229
249.7172592
240.4497876
233.1286285
227.8226375
224.6496707
223.7802369
225.4415154
229.9208737
237.5674767
248.7899407
264.0474895
283.8323545
308.5375232
338.4101949
373.5719415
413.8761931
458.8109937
507.4066021
558.1553488
608.9943788
657.3501159
700.2665089
734.6105593
757.3161232
765.6081006
757.1699979
730.1800614
683.3616843
615.8390269
527.0366997
419.0114143
302.6058483
211.8288397
212.7560787
148.6638439
170.42197
233.6767663
340.7755549
457.0891323
556.5595653
635.3352068
695.1164899
736.3693392
759.4138561
764.81291
753.838628
728.5672972
691.7569312
646.5948857
596.3690334
544.1431315
492.532706
443.5789247
398.7157839
358.79799
324.3752383
295.4622567
271.8254955
253.0880585
238.8051695
228.5182665
221.7914374
218.2336129
217.5099576
219.3458441
223.5264122
229.894034
238.3452477
248.8280613
261.3400327
275.927201
292.6837057
311.7517494
333.321366
357.629244
384.9556114
415.6179458
449.9600946
488.3353652
531.0824178
578.4934823
630.7756347
688.0075428
750.0959822
816.7380303
887.3955595
961.2879449
1037.406653
1114.551966
1191.388359
1266.511989
1338.522034
1406.087667
1468.003928
1523.232236
1570.924023
1610.42843
1641.286995
1663.219624
1676.10746
1679.980449
1675.021858
1661.609671
1640.4244
1612.654273
1580.295317
1546.435122
1515.211661
1490.968053
1476.397766
1470.680288
1469.689967
1468.685398
1464.77736
1457.226196
1448.826562
1443.339404
1444.826379
1456.52839
1478.938519
1509.451476
1543.813393
1577.825737
1608.255533
1632.955902
1650.608803
1660.420348
1661.905457
1654.772996
1638.880249
1614.225713
1580.959846
1539.40206
1490.056854
1433.623912
1370.997708
1303.253031
1231.614338
1157.409032
1082.007405
1006.754681
932.9026116
861.5487236
793.5904633
729.699047
670.314548
615.6603506
565.7724532
520.5377154
479.7351229
443.075189
410.2342082
380.8817374
354.7010493
331.403234
310.7361246
292.4893776
276.4969801
262.638271
250.8383416
241.0684631
233.3469901
227.7410169
224.368879
223.4033498
225.075041
229.6750024
237.554875
249.1222078
264.8278531
285.141985
310.5134245
341.213065
377.2894246
418.5542942
464.4341553
513.8828693
565.2874043
616.4710678
664.7500017
707.0837366
740.3083252
761.3953006
767.6678269
756.9290636
727.4560354
677.9362176
607.5327755
515.4579378
404.3757013
287.7809772
202.2539275
178.1690749
157.9962404
179.6577191
233.4687157
329.3870353
446.1576369
549.9050035
631.8916049
693.9151569
736.806479
761.2441934
767.9101339
758.058037
733.6790463
697.4431712
652.4960073
602.1447037
549.5062004
497.2744666
447.5872163
401.9526179
361.3882737
326.3124479
296.7776372
272.5841311
253.3776363
238.7261406
228.1764812
221.2933255
217.6834878
217.0089248
218.9918703
223.4152356
230.1207122
239.0062284
250.0237062
263.1775502
278.523944
296.1707867
316.2778955
339.0568888
364.7699168
393.7261297
426.2745003
462.7914312
503.6615793
549.2506908
599.8700898
655.7339013
716.9119978
783.2837188
854.499014
929.9541237
1008.787749
1089.900874
1171.999581
1253.656321
1333.382211
1409.701608
1481.220659
1546.683357
1605.011268
1655.325903
1696.955065
1729.426264
1752.451583
1765.909684
1769.832915
1764.412164
1750.040335
1727.425847
1697.809347
1663.279209
1627.059108
1593.426121
1566.755603
1549.536176
1540.542435
1535.449126
1530.063341
1522.788325
1514.290391
1507.524903
1505.150941
1510.164931
1525.284954
1550.915768
1584.473465
1621.672408
1658.239189
1690.87027
1717.37037
1736.38986
1747.111655
1749.03193
1741.844698
1725.396791
1699.681174
1664.848098
1621.222592
1569.32138
1509.864107
1443.774403
1372.16702
1296.318519
1217.621105
1137.521847
1057.452378
978.7564641
902.6239116
830.0387362
761.7473596
698.2492858
639.8090599
586.4852237
538.17014
494.6342081
455.5689072
420.6247563
389.4421096
361.6742819
337.0036079
315.1516663
295.8851176
279.0185633
264.4156388
251.9893073
241.7020679
233.5665712
227.6469328
224.0608385
222.9822676
224.6442939
229.3408619
237.4257248
249.3059279
265.4264968
286.2424837
312.1746845
343.5439453
380.4253173
422.5302377
469.2219129
519.3916782
571.3240959
622.7455724
670.8847499
712.6444155
744.8625739
764.5774619
769.2199868
756.6845761
725.2680741
673.5068212
600.4620235
505.4594642
391.8776854
277.7241924
199.7974539
170.2094987
170.0155641
193.7959837
242.4610971
325.9031297
437.007806
542.589548
628.2693999
693.0056631
737.5780669
763.1640667
770.728428
761.640955
737.8862485
702.0678392
657.279795
606.8320349
553.8623726
501.1086495
450.8766563
404.6964422
363.5370247
327.865595
297.7718516
273.0835854
253.4650004
238.4948129
227.7247556
220.7204837
217.0875619
216.4858011
218.635424
223.3182642
230.3765166
239.7107512
251.2781721
265.0915637
281.2190029
299.7841564
320.9667612
345.0026446
372.1823576
402.8471773
437.3809322
476.1959064
519.7111252
568.3217905
622.3596772
682.0459895
747.4403397
818.3917235
894.4989075
975.0877779
1059.211504
1145.676016
1233.089102
1319.927503
1404.613779
1485.593822
1561.40677
1630.741193
1692.474142
1745.692446
1789.697891
1823.99958
1848.297901
1862.465837
1866.535759
1860.70479
1845.38056
1821.300603
1789.760685
1752.945234
1714.215434
1677.975821
1648.590502
1628.260399
1615.275676
1605.139756
1594.430222
1583.204373
1573.858136
1569.403899
1571.063017
1580.45468
1599.623422
1628.892027
1665.767719
1705.99364
1745.253622
1780.184679
1808.543968
1828.947919
1840.554167
1842.839482
1835.483876
1818.325825
1791.35581
1754.727641
1708.776233
1654.035083
1591.248443
1521.373668
1445.569773
1365.169336
1281.632888
1196.48755
1111.254627
1027.373422
946.1299504
868.5991111
795.6069739
727.7166357
665.2372253
608.2521376
556.6602394
510.2230443
468.6115765
431.4483193
398.3416374
368.9118591
342.8095208
319.727044
299.4054202
281.6374604
266.2689631
253.1988774
242.3792597
233.8155574
227.5675402
223.7509684
222.5398167
224.1684763
228.9327632
237.1878068
249.3400535
265.829929
287.1013213
313.55407
345.4757692
382.9524054
425.7708639
473.1292247
523.8866207
576.2198754
627.7838178
675.7463876
716.9801784
748.3533268
766.9864105
770.4010325
756.5156436
723.5225822
669.6722355
593.8433721
495.9695251
381.1460475
274.8655269
206.767271
177.6867331
184.1091085
210.9959393
258.896152
331.2091149
432.0705387
536.4052102
624.3496163
691.6861409
738.219688
764.9424387
773.1782793
764.5594577
741.1763264
705.6110853
660.9114083
610.3919122
557.2032166
504.1684778
453.5179259
406.8524331
365.1760999
328.992294
298.4212422
273.3138779
253.350348
238.1191635
227.177117
220.0916497
216.4681857
215.9656177
218.3034151
223.2636015
230.6901757
240.4877283
252.6202544
267.110612
284.040702
303.5521742
325.8472269
351.1887892
379.8990517
412.3549503
448.9788698
490.2226339
536.5429487
588.3670663
646.0486995
709.816192
779.717377
855.5678982
936.9111801
1022.997953
1112.790935
1204.996336
1298.11936
1390.536995
1480.579169
1566.608931
1647.093581
1720.661013
1786.138275
1842.572061
1889.233013
1925.60721
1951.379348
1966.413422
1970.739315
1964.558872
1948.294218
1922.713299
1889.169728
1849.946979
1808.54245
1769.470196
1737.028908
1713.037232
1695.219958
1678.959376
1661.868821
1646.065909
1636.020079
1634.669679
1641.420829
1656.162635
1680.094591
1713.466706
1753.960572
1797.420166
1839.524188
1876.862531
1907.145208
1928.951817
1941.412385
1943.983649
1936.332596
1918.291567
1889.851715
1851.174295
1802.608587
1744.709833
1678.252193
1604.232152
1523.85825
1438.523994
1349.76271
1259.185639
1168.407617
1078.967365
992.2512132
909.4292932
831.4117432
758.8293778
692.0392991
631.1520243
576.0738521
526.5569837
482.250377
442.7459712
407.6170654
376.4476656
348.8531589
324.4936143
303.0814125
284.3849274
268.2297692
254.4987947
243.1317721
234.125291
227.5332629
223.4681096
222.1024514
223.6706931
228.4692924
236.8537035
249.2291343
266.0315997
287.6954985
314.6042078
347.0208956
384.9988789
428.2715771
476.1214098
527.3377284
579.9432964
631.5637808
679.3347963
720.1178604
750.8291956
768.6667316
771.1914058
756.2378723
721.7504912
665.5878168
586.6124323
486.9653571
376.4996183
281.7000601
221.0691629
190.7202327
200.4006072
230.8555801
280.4644016
345.4701385
433.1307307
532.0501901
620.4395243
689.9690999
738.3930975
766.2351018
775.0221036
766.6885718
743.4843904
708.060442
663.4575753
612.9215079
559.6204953
506.3579119
455.3875772
408.3403421
366.2536242
329.6616946
298.7106536
273.2715741
253.0391554
237.6115602
226.5513045
219.4287267
215.8504244
215.4757456
218.0247797
223.2811141
231.0919619
241.3674342
254.0799654
269.2643411
287.0184003
307.5042042
330.9491988
357.6465888
387.953761
422.2871902
461.1118817
504.9232127
554.2191987
609.4619793
671.0288375
739.1553583
813.8760347
894.9700606
981.9212623
1073.900326
1169.7745
1268.145455
1367.411234
1465.844563
1561.678006
1653.186578
1738.760034
1816.9595
1886.555812
1946.549511
1996.174526
2034.888967
2062.357578
2078.431817
2083.13631
2076.675847
2059.486648
2032.368365
1996.73518
1954.971773
1910.707164
1868.539287
1832.634741
1804.323231
1780.685284
1757.060988
1732.412532
1711.366227
1700.823198
1703.489368
1716.539359
1737.738722
1767.246648
1805.249499
1849.698884
1896.623386
1941.740243
1981.606157
2013.88421
2037.113908
2050.395321
2053.164737
2045.077392
2025.96198
1995.813704
1954.805373
1903.305411
1841.896175
1771.387584
1692.821402
1607.46186
1516.769324
1422.3554
1325.920451
1229.177439
1133.768903
1041.185881
952.6982054
869.3045151
791.7074279
720.3153484
655.2681084
596.480254
543.6940819
496.5346461
454.5605527
417.3066408
384.3169225
355.1679541
329.4839449
306.9454407
287.2934795
270.3309108
255.9222249
243.9928852
234.528816
227.5764218
223.243246
221.6990781
223.1768936
227.9723836
236.4400142
248.9826929
266.0314874
288.0116916
315.2919473
348.1139889
386.5022423
430.1553754
478.3291106
529.7340218
582.4734282
634.0690169
681.6470293
722.059649
752.274248
769.5362599
771.3601172
755.3656718
719.1635906
660.6392505
579.7266952
481.3196483
379.5949538
297.6667468
240.9638645
207.4547288
219.5139351
253.8572217
305.9267894
366.93111
441.5605795
530.9124208
616.8559671
687.4962077
737.6341345
766.6405341
775.9739963
767.838434
744.7154642
709.3586607
664.8167857
614.3054333
560.9601105
507.5723678
456.4026692
409.1020778
366.7328566
329.8539288
298.6332076
272.9597462
252.542159
236.9886781
225.8685924
218.7565093
215.2616913
215.0454436
217.8299523
223.4018381
231.6130405
242.3808077
255.687797
271.5827333
290.181693
311.6697916
336.3027616
364.4075502
396.3806323
432.682271
473.8245465
520.3507853
572.8042821
631.6851663
697.3960887
770.1800396
850.0565883
936.7653114
1029.726096
1128.024605
1230.427483
1335.426833
1441.308613
1546.236237
1648.339454
1745.799211
1836.921139
1920.192704
1994.321667
2058.255937
2111.186872
2152.539492
2181.954174
2199.266062
2204.491423
2197.835822
2179.748827
2151.062873
2113.2551
2068.812059
2021.485027
1975.919898
1936.069266
1902.655024
1872.042033
1839.644837
1806.139914
1779.147597
1768.364493
1776.080834
1796.790684
1825.702752
1861.711902
1904.944647
1953.728893
2004.374258
2052.687892
2095.210154
2129.558054
2154.227893
2168.287704
2171.153338
2162.469994
2142.065571
2109.942947
2066.290776
2011.501575
1946.190446
1871.209352
1787.652107
1696.845653
1600.324128
1499.783972
1397.020671
1293.850769
1192.025659
1093.145878
998.5856331
909.4365406
826.477067
750.1701606
680.6870354
617.9511405
561.6940634
511.5148463
466.935653
427.4491143
392.555212
361.787633
334.7308897
311.0301709
290.396021
272.605731
257.5029568
244.9966723
235.0601829
227.7306088
223.1089603
221.3606084
222.7155364
227.4671099
235.9672816
248.6152679
265.8361325
288.0456425
315.5982985
348.7163433
387.3990658
431.3151295
479.6878142
531.1954322
583.920289
635.3852038
682.6934624
722.7634187
752.5817547
769.3618955
770.5046891
753.4085517
715.4862993
655.0298594
573.7769298
480.4373136
392.0751387
321.4694714
265.3013062
227.7791207
242.1610045
280.6428064
335.0261896
393.4702071
457.2407197
534.4382249
614.5807624
684.3752423
735.5633622
765.6682193
775.6144574
767.7031537
744.6410935
709.3269986
664.8522053
614.4151779
561.1176226
507.7283847
456.501979
409.0966182
366.5898898
329.5589279
298.1896926
272.3875735
251.874992
236.2711021
225.153336
218.1021671
214.7311717
214.7052279
217.750187
223.6572596
232.2847182
243.5586752
257.473926
274.0953014
293.5595964
316.077841
341.9373507
371.5025861
405.2133532
443.5783462
487.1615894
536.5591641
592.3639817
655.1175538
725.249884
803.0116141
888.405804
981.1291895
1080.533293
1185.613663
1295.031035
1407.162643
1520.176997
1632.122531
1741.019948
1844.949236
1942.124485
2030.95191
2110.068842
2178.36377
2234.979468
2279.302619
2310.944637
2329.720249
2335.633758
2328.888728
2309.946729
2279.673563
2239.61103
2192.346067
2141.73671
2092.428258
2048.05978
2008.614908
1969.685193
1926.923346
1883.141376
1849.468462
1838.755896
1852.674818
1882.565651
1920.60889
1964.176187
2013.325768
2066.875909
2121.527034
2173.237023
2218.551133
2255.042711
2281.162423
2295.944805
2298.785964
2289.32345
2267.38776
2232.993471
2186.34961
2127.877888
2058.231951
1978.312357
1889.272225
1792.508921
1689.638211
1582.44897
1472.838888
1362.734519
1254.001918
1148.356463
1047.281703
951.9668317
863.2701889
781.7124013
707.4979703
640.5596891
580.6173663
527.2416063
479.9146557
438.0827957
401.1975423
368.7452925
340.2666722
315.3676824
293.7249487
275.0871799
259.2745383
246.1771613
235.7536436
228.0299267
223.0987283
221.1193181
222.3170219
226.9811956
235.4595788
248.1460505
265.4582278
287.8013609
315.5156309
348.8048614
387.646014
431.6824215
480.1112538
531.5879201
584.1815516
635.4171678
682.4184572
722.1296498
751.5416084
767.8045196
768.157177
749.8095824
710.2742022
648.9080142
570.2180582
486.608357
413.5615771
351.0121435
293.903785
252.09671
269.0686448
311.7332051
367.7142918
423.4701574
478.5520292
543.2068339
614.7223405
681.157891
732.100032
762.9134902
773.4826089
765.8915761
742.964874
707.746996
663.4002458
613.1269861
560.000651
506.7593412
455.639808
408.2961555
365.8116232
328.7753159
297.3878412
271.5697403
251.0575917
235.4827053
224.4323106
217.4945439
214.2890841
214.4860988
217.8167538
224.0784848
233.1375931
244.9308872
259.4673409
276.8302069
297.17966
320.7557201
347.8808433
378.961089
414.4842049
455.0123729
501.1668728
553.6017855
612.9643728
679.8412383
754.6919374
837.7751179
929.0757641
1028.244503
1134.559978
1246.922389
1363.881034
1483.692624
1604.402349
1723.93732
1840.202157
1951.168164
2054.949745
2149.863743
2234.469404
2307.588927
2368.310498
2415.977209
2450.166739