/*--------------------------------*- C++ -*----------------------------------*\
| =========                 |                                                 |
| \\      /  F ield         | OpenFOAM: The Open Source CFD Toolbox           |
|  \\    /   O peration     | Version:  v1806                                 |
|   \\  /    A nd           | Web:      www.OpenFOAM.com                      |
|    \\/     M anipulation  |                                                 |
\*---------------------------------------------------------------------------*/
FoamFile
{
    version     2.0;
    format      ascii;
    class       volScalarField;
    location    "90";
    object      k;
}
// * * * * * * * * * * * * * * * * * * * * * * * * * * * * * * * * * * * * * //

dimensions      [0 2 -2 0 0 0 0];


internalField   nonuniform List<scalar> 
64485
(
1.751908763
2.693649335
3.816394144
5.015342454
6.14861672
7.13644598
7.952630113
8.590674222
9.057990096
9.366111499
9.530932853
9.571064109
9.507178958
9.361023288
9.153823762
8.905956878
8.636059714
8.36028787
8.091890012
7.841014928
7.614740765
7.417317533
7.25059308
7.114563453
7.007963003
6.92879325
6.874753336
6.843823815
6.83358559
6.841948659
6.867186082
6.907834332
6.962615432
7.030373302
7.110024605
7.200524207
7.300843608
7.409959177
7.5268464
7.650476488
7.779812377
7.913802124
8.051368675
8.191395997
8.332712498
8.47407359
8.614146096
8.751497945
8.884596987
9.011822674
9.131493425
9.241910672
9.341417965
9.428471931
9.501717512
9.560036504
9.602582809
9.628827989
9.638553801
9.631811536
9.608855738
9.570066896
9.515911922
9.44687916
9.363311236
9.26538848
9.153365668
9.027811919
8.890048962
8.742991243
8.592412172
8.448514335
8.327182369
8.249417349
8.236774135
8.301924911
8.437663383
8.612086957
8.77556567
8.876765178
8.88015314
8.788796203
8.650210198
8.519464613
8.439830988
8.430506549
8.487176694
8.59191255
8.724040546
8.866467965
9.007652184
9.140900849
9.262881918
9.372200418
9.468375441
9.551239795
9.620679654
9.676387919
9.717810189
9.744307169
9.755313999
9.750360745
9.72916875
9.69173119
9.638367334
9.56972937
9.486785169
9.390797315
9.283257499
9.16581005
9.040176167
8.908085788
8.771223365
8.631190593
8.489486099
8.347499851
8.206518755
8.067739492
7.932284919
7.801221023
7.675572216
7.556333677
7.444480282
7.340972509
7.246760565
7.162788839
7.090003554
7.02936705
6.98188226
6.948630804
6.93082826
6.929900826
6.947590233
6.985623768
7.045942567
7.130600869
7.241587503
7.38053911
7.548320558
7.744504577
7.96681335
8.21060735
8.468504524
8.730187901
8.982426202
9.209303275
9.392717475
9.513052316
9.549387104
9.480467286
9.285695014
8.945893434
8.444558659
7.769339977
6.917181946
5.904039929
4.778729798
3.630026544
2.468246212
1.492390848
2.51261657
3.674360278
4.956572309
6.180840207
7.248604529
8.130160708
8.817968246
9.320733477
9.6510297
9.826106061
9.866073375
9.793308125
9.631316953
9.403196913
9.131193051
8.835579065
8.533900355
8.240507795
7.966362922
7.719093629
7.50327821
7.320913949
7.172005066
7.05518921
6.968289145
6.908928934
6.874662801
6.862800565
6.87106865
6.897555589
6.940634335
6.998886624
7.07103747
7.155903887
7.252359027
7.359310175
7.47568716
7.60043706
7.732521261
7.870911726
8.014584265
8.162507649
8.313628376
8.466851776
8.621021088
8.774896951
8.927140586
9.076304458
9.220834334
9.359086034
9.489358704
9.609944058
9.71918767
9.815563286
9.89771957
9.964518404
10.01509734
10.04887722
10.0655386
10.06497443
10.0472281
10.0124484
9.960928313
9.89286309
9.808227478
9.707189944
9.590324566
9.459013276
9.31634717
9.168474839
9.026280839
8.906727144
8.832227167
8.825682711
8.900254659
9.047682968
9.233656798
9.405632493
9.509985347
9.510574901
9.411911891
9.262338486
9.119516074
9.029208756
9.011976275
9.063465357
9.164722678
9.293823366
9.432660855
9.56899021
9.695710568
9.809278629
9.908203694
9.991969194
10.0604092
10.11357581
10.15128571
10.17309113
10.17863239
10.16763462
10.13994757
10.09562977
10.03501062
9.958727118
9.867712205
9.763163767
9.646524929
9.519409761
9.383531872
9.240634434
9.0924302
8.940556631
8.786548134
8.631824641
8.47769379
8.32536293
8.175956961
8.03053844
7.890127101
7.75571683
7.628288974
7.508821722
7.398296101
7.297699995
7.208032425
7.130311208
7.065587675
7.014972271
6.979674431
6.961059444
6.960723915
6.980592981
7.022715683
7.089202717
7.182342285
7.304328083
7.456948662
7.641132914
7.85639483
8.100240138
8.367619619
8.650513379
8.937710191
9.214814975
9.464495546
9.666976123
9.800825865
9.843315709
9.771332761
9.562453789
9.195722779
8.65307282
7.92057785
6.995288402
5.895738658
4.68405313
3.479725614
2.192020834
1.188427666
2.096978
3.254403543
4.602438557
5.917513642
7.073885585
8.0347737
8.790792021
9.350798803
9.727250315
9.937640511
10.0025511
9.945087139
9.789661066
9.56090019
9.282482016
8.976088141
8.660605626
8.351612937
8.061151317
7.797762728
7.566765712
7.370719162
7.210011758
7.083512428
6.989154605
6.924736639
6.88731619
6.874106676
6.882690686
6.910989459
6.957203928
7.019747922
7.097186524
7.188186737
7.291482941
7.40585594
7.530122123
7.663128486
7.803749487
7.950882533
8.103439924
8.26033619
8.420470689
8.582706347
8.745846279
8.908610995
9.069619693
9.227379733
9.380288457
9.526650787
9.664714326
9.792721041
9.908971223
10.01189018
10.10008928
10.17242186
10.22801752
10.26628559
10.28689162
10.28971345
10.27480137
10.24230029
10.19233658
10.1250054
10.04038232
9.938637269
9.820287882
9.686708347
9.541036063
9.389569459
9.243543146
9.120591598
9.044184237
9.038467428
9.117365572
9.272097453
9.466195002
9.644296186
9.750229544
9.746395083
9.638932401
9.47848888
9.325490724
9.228004545
9.207484321
9.259018635
9.362541096
9.494981006
9.637429332
9.777181119
9.906922772
10.02301232
10.12391231
10.20909639
10.27840765
10.33174167
10.36890695
10.38962873
10.39355534
10.38036503
10.34989563
10.30219663
10.23758515
10.15668442
10.0604317
9.950053638
9.827021754
9.692990907
9.549725616
9.399026992
9.242669182
9.082351267
8.91966717
8.756093117
8.592989878
8.431615826
8.273146551
8.118697141
7.969344026
7.826144221
7.690150688
7.562423446
7.444036905
7.33608474
7.239684589
7.155985686
7.086183214
7.031543256
6.993441448
6.973416915
6.973240702
6.994992735
7.041060757
7.113648061
7.215115318
7.347660804
7.512964327
7.711695694
7.942934724
8.203564094
8.48772081
8.786388953
9.08719687
9.374454814
9.62944154
9.830920539
9.955851361
9.980209413
9.879795783
9.631186557
9.212525795
8.605171025
7.794544394
6.778995623
5.580834207
4.281789713
3.03489509
1.830271229
0.9331792193
1.698329399
2.80989056
4.204918276
5.605622197
6.851083827
7.89347086
8.721579068
9.343692737
9.771802896
10.02320922
10.11856055
10.08143185
9.937157221
9.711518437
9.429543074
9.114359748
8.786288243
8.462250194
8.155496838
7.875619934
7.628812106
7.418315285
7.24499928
7.108048416
7.005837796
6.935804671
6.894815143
6.879991318
6.888770928
6.918904872
6.968414748
7.035534779
7.118654713
7.216273252
7.326965598
7.449364195
7.582149153
7.724043982
7.873812493
8.030253667
8.19219241
8.35846523
8.527900915
8.699297257
8.871395817
9.042857687
9.212244048
9.378005865
9.538487038
9.691944381
9.836585794
9.970624973
10.09234747
10.20017961
10.29275084
10.36894175
10.42791024
10.46909036
10.4921647
10.4970165
10.48366982
10.45224021
10.40285605
10.33558235
10.25045258
10.14759724
10.02749088
9.891464161
9.742628819
9.587326908
9.437007523
9.309839039
9.230265529
9.223731673
9.305156025
9.46548527
9.666424874
9.849658129
9.956152991
9.946462386
9.828696
9.656610865
9.49370068
9.390187847
9.367978696
9.421180497
9.528220766
9.664822462
9.811411099
9.955017175
10.08825155
10.20745951
10.31109644
10.39862011
10.46985442
10.52468367
10.56292249
10.58425837
10.58832122
10.57480411
10.54352041
10.49447993
10.4279515
10.34450586
10.24503103
10.13071885
10.0030254
9.863610179
9.714262617
9.556826695
9.393133395
9.224948086
9.053936364
8.881648481
8.7095199
8.538883947
8.370992091
8.207037637
8.048179436
7.895563134
7.750338493
7.613672191
7.486756449
7.370814688
7.267106435
7.176934593
7.101658914
7.042719604
7.001673955
6.980246646
6.980390914
7.00435237
7.054724443
7.13407886
7.244685416
7.38870466
7.567645142
7.781827995
8.029784404
8.307638819
8.608566198
8.922402149
9.235466828
9.530640782
9.787705714
9.98394296
10.09492665
10.0953526
9.959976852
9.664601207
9.186738362
8.507504127
7.611873108
6.500429525
5.200876767
3.820696486
2.561700095
1.486331537
0.7375110361
1.352328482
2.383989865
3.803184798
5.281004179
6.613348824
7.736133349
8.636796394
9.322340756
9.804221511
10.09921893
10.22774767
10.21355791
10.08260806
9.861773418
9.577440473
9.254212202
8.913889688
8.574799881
8.251470826
7.954609737
7.69135158
7.465688298
7.279017254
7.131144097
7.020587065
6.944362102
6.899354367
6.882598152
6.891387086
6.923298445
6.976167146
7.048037139
7.137109926
7.241701787
7.360214241
7.491117098
7.632940547
7.784271809
7.943752176
8.11007127
8.281956574
8.458157467
8.637424044
8.818481978
9.000005707
9.180593119
9.35874583
9.532859582
9.701229128
9.862070785
10.0135635
10.15390602
10.28138413
10.39443903
10.49172688
10.57216096
10.63493017
10.67949089
10.70553473
10.71293918
10.70171103
10.67191825
10.62362232
10.55684565
10.47159317
10.36795308
10.24634758
10.10805098
9.956131496
9.796948248
9.642123407
9.510294267
9.426788607
9.418261234
9.500629252
9.664728109
9.870523242
10.05699152
10.16254443
10.14605428
10.01795997
9.835093911
9.663754925
9.555956041
9.533699476
9.589873935
9.701371006
9.842764987
9.993869199
10.14149919
10.27824388
10.40047729
10.50667334
10.59629042
10.66914365
10.72510257
10.76397279
10.78547378
10.78927241
10.77505959
10.74263467
10.69197712
10.62331011
10.53714859
10.43432321
10.31597601
10.18352833
10.03862487
9.88306235
9.718713324
9.547455555
9.371115132
9.191427941
9.010020465
8.828407903
8.648005707
8.470149926
8.296121891
8.127173502
7.964550363
7.809511015
7.663341464
7.527365136
7.402949328
7.291510217
7.194519526
7.113516653
7.050130213
7.006111717
6.983381276
6.984080775
7.01062381
7.065722345
7.152333893
7.272809382
7.42910012
7.622497211
7.85290868
8.118243979
8.413790477
8.731679524
9.060515518
9.385228054
9.687192195
9.944631053
10.1332894
10.22732136
10.20028648
10.02610831
9.680027145
9.139147298
8.384497801
7.400991645
6.19157411
4.792690935
3.344257453
2.106091285
1.1807909
0.6140279705
1.080907771
2.00671825
3.422456078
4.965644397
6.379933417
7.579141869
8.549431748
9.296267591
9.830777864
10.1690894
10.33117712
10.34073425
10.22414978
10.00918047
9.72343248
9.392919977
9.040906474
8.687126591
8.347396977
8.033553202
7.753700345
7.512620172
7.312365483
7.153592233
7.034214157
6.951381959
6.902005453
6.883044179
6.891655314
6.925244553
6.98145714
7.058139883
7.15329665
7.265050656
7.391618888
7.531298243
7.682459805
7.843546695
8.01307137
8.189609285
8.371787201
8.558265571
8.747715508
8.938791878
9.130104956
9.320194136
9.507507947
9.690395076
9.867110731
10.03584128
10.19474743
10.34202286
10.47596139
10.59502332
10.69789071
10.78350323
10.85106923
10.90005132
10.93013001
10.94115248
10.93307421
10.90590152
10.85963846
10.79425345
10.70969644
10.60600016
10.48353001
10.34350383
10.18894732
10.02623397
9.867145834
9.730753884
9.643198087
9.632232312
9.714637193
9.881044173
10.08980552
10.27752592
10.38054325
10.35649558
10.21846514
10.02603414
9.847864573
9.737337378
9.716263264
9.776204903
9.892541094
10.03877709
10.19421336
10.34552222
10.48530386
10.60997074
10.71801979
10.80891795
10.88248738
10.93861132
10.97711811
10.99775814
11.00023921
10.98428847
10.94971958
10.89650342
10.82483367
10.73517959
10.62831781
10.50533738
10.36761621
10.21677191
10.05459433
9.882970235
9.703810885
9.518991808
9.330310332
9.139462844
8.948040334
8.757538574
8.569378252
8.384930403
8.205543102
8.032566385
7.86737335
7.711376401
7.566038534
7.432880508
7.313485789
7.209506251
7.122672359
7.054811771
7.00787894
6.983994981
6.985491787
7.014947201
7.075189436
7.169240015
7.299982064
7.468983987
7.677227841
7.924154663
8.207003377
8.520180442
8.854736706
9.198014654
9.533526929
9.841128539
10.09749576
10.27690478
10.3522351
10.29605833
10.08163524
9.683825424
9.079480962
8.249514652
7.17914869
5.873368897
4.381631183
2.883823252
1.702436194
0.9361573176
0.5551105269
0.885501655
1.689712418
3.071652499
4.666834982
6.157225078
7.428794916
8.465010264
9.269869173
9.85459374
10.23473924
10.42975695
10.4630812
10.36128853
10.15281311
9.866338076
9.529196452
9.166062291
8.798052018
8.442258666
8.111629643
7.815252848
7.558710997
7.345431973
7.175436056
7.046898197
6.957143248
6.903122319
6.881735133
6.890012233
6.925191694
6.984727778
7.066264849
7.167601311
7.286658359
7.421459513
7.570120706
7.730847283
7.901933366
8.081759505
8.268785758
8.461538728
8.658592227
8.858542353
9.059978692
9.261454344
9.46145843
9.658395533
9.850576892
10.03622763
10.2135127
10.38058133
10.5356261
10.67694911
10.80302539
10.91255323
11.0044837
11.07802525
11.13262416
11.16792592
11.18372459
11.17990767
11.15640182
11.11312802
11.04997961
10.96684154
10.86368743
10.7408264
10.59942323
10.44246627
10.27634799
10.11300734
9.971921792
9.879964712
9.865842121
9.947024607
10.11384752
10.3231639
10.50965906
10.60828963
10.57612948
10.42912461
10.22906176
10.04631767
9.935108999
9.916773408
9.981504775
10.10326515
10.25461811
10.41443764
10.56929449
10.71181717
10.83846409
10.94776016
11.03918751
11.1125856
11.16786765
11.20490942
11.22352558
11.22349126
11.20458993
11.16667449
11.10973269
11.03395155
10.93977291
10.82793179
10.69947016
10.55572251
10.39827445
10.22890047
10.04949089
9.861978966
9.668278331
9.470237292
9.269613026
9.068064785
8.867162795
8.668408197
8.473259188
8.283159092
8.099563041
7.923960951
7.75789549
7.602974684
7.460879732
7.333369689
7.222285784
7.129559011
7.05722483
7.007447444
6.982552489
6.985060878
7.0177084
7.083426594
7.185252063
7.326138068
7.508089474
7.731335105
7.994811322
8.295053956
8.625563334
8.976294528
9.333322965
9.678743796
9.990908599
10.24499186
10.41388827
10.46934581
10.38314962
10.12811506
9.678877762
9.012107885
8.108363405
6.953565866
5.55451254
3.979437626
2.456751285
1.366027312
0.7585852184
0.5484693125
0.7707871889
1.445125
2.759615891
4.390129102
5.95018382
7.290763855
8.389054712
9.247940427
9.879342453
10.29862801
10.52482604
10.58102637
10.49379547
10.29201968
10.00526973
9.662057781
9.288378355
8.906678628
8.535296772
8.188239638
7.875593245
7.604555446
7.378215465
7.19681217
7.058900949
6.962007311
6.903143329
6.879165659
6.886989867
6.92369217
6.986536295
7.072960564
7.180551805
7.307021995
7.450194138
7.607997175
7.778466286
7.959744052
8.150078558
8.347815888
8.551385804
8.759280607
8.970028166
9.18216105
9.394184611
9.604547876
9.811621861
10.01369023
10.20895658
10.39557089
10.57167433
10.73545807
10.88522784
11.01946391
11.13686657
11.23637968
11.31718974
11.37870261
11.42050369
11.4423091
11.44391516
11.42515209
11.38584756
11.32580967
11.24484842
11.14287259
11.02013454
10.87774998
10.71867678
10.54933285
10.38181304
10.2359765
10.13934992
10.12142708
10.20014374
10.36538427
10.5726334
10.75519796
10.84745569
10.80680797
10.65213014
10.44673551
10.26194005
10.15220082
10.13812565
10.20856411
10.33620991
10.49283123
10.65697338
10.81515447
10.96004693
11.08815583
11.19803371
11.28918245
11.36146972
11.41485498
11.4492798
11.46463973
11.46079782
11.43762082
11.39502897
11.33305454
11.25190328
11.15201141
11.03408907
10.89914214
10.74846682
10.58361651
10.40634584
10.21854096
10.02214737
9.819106029
9.611305288
9.400552659
9.188566126
8.976982091
8.767375312
8.56128588
8.36024874
8.165822168
7.979612657
7.803294629
7.638624342
7.487448268
7.351707295
7.233439249
7.134783183
7.057989184
7.005436057
6.979655407
6.98335397
7.019416987
7.090865816
7.200734877
7.351830488
7.546342671
7.784543335
8.064391298
8.38170155
8.729056977
9.095317585
9.465311261
9.819736851
10.13549237
10.38633862
10.54392991
10.57908186
10.46301905
10.1683094
9.669451451
8.942867719
7.968360575
6.732809396
5.245730864
3.60078527
2.084116005
1.110492535
0.6526765759
0.5668622046
0.7407364375
1.285579938
2.496346329
4.137310534
5.760259148
7.167518671
8.325022299
9.234125801
9.908213574
10.36316725
10.61793139
10.69533899
10.62181996
10.42650563
10.13965545
9.79078767
9.407090048
9.012273491
8.625876095
8.262848842
7.93529314
7.650087391
7.410652037
7.21777851
7.070396812
6.966248104
6.902424266
6.875756073
6.883056609
6.921247118
6.987402537
7.078752997
7.192669205
7.326648466
7.478308109
7.645386129
7.825745329
8.017376532
8.21839722
8.427043394
8.641653815
8.860646904
9.082491526
9.305673713
9.528662353
9.749877826
9.967668393
10.18029942
10.3859598
10.58278801
10.76891664
10.94253045
11.1019291
11.24558392
11.37217872
11.48062824
11.57007277
11.63985233
11.68946731
11.71853301
11.72673483
11.71378909
11.6794143
11.62332089
11.54523593
11.44499991
11.32280929
11.17973569
11.01871463
10.84619818
10.67443967
10.52365784
10.4219482
10.39940523
10.4741652
10.63547845
10.83761795
11.01317199
11.0969122
11.04761744
10.88702482
10.67914301
10.49527852
10.38945502
10.38132081
10.45847587
10.59254881
10.75468286
10.92319157
11.0845779
11.23156459
11.3607002
11.47056296
11.56067764
11.63094869
11.68139546
11.71204336
11.72289029
11.71391007
11.68507708
11.63640569
11.5680006
11.48011364
11.37320016
11.24796625
11.10539734
10.94676144
10.77358445
10.587601
10.39068888
10.18479861
9.971889089
9.753878167
9.532612665
9.309858496
9.087308163
8.866601088
8.649351705
8.437180603
8.231744917
8.034765176
7.848046789
7.673495247
7.513124981
7.369062866
7.243548531
7.138934666
7.057690918
7.00241371
6.975840288
6.980858268
7.020492195
7.097838519
7.215913081
7.377374282
7.584094787
7.83655982
8.132427594
8.466319486
8.829900966
9.210947472
9.593091711
9.955673061
10.27422146
10.52121093
10.66723113
10.68238909
10.5375771
10.20526322
9.659780544
8.877032618
7.835528409
6.523221166
4.955522676
3.258338196
1.783121287
0.9400201493
0.6103461922
0.5935368325
0.7591980724
1.237591677
2.307665413
3.911126447
5.587124275
7.058963108
8.274589844
9.231013473
9.943923438
10.43065267
10.71066337
10.80688325
10.74561178
10.55606655
10.26900699
9.91475232
9.521503807
9.114177073
8.71345577
8.336276851
7.994308642
7.695093122
7.442692112
7.238422722
7.081594143
6.97017796
6.901364318
6.871975276
6.878734372
6.918415588
6.987907953
7.084232636
7.20454131
7.34611302
7.506356381
7.682816792
7.873184914
8.07530214
8.287159805
8.506890349
8.732749978
8.963093428
9.196342172
9.430948292
9.665357099
9.897972645
10.12713116
10.35108775
10.56802101
10.77605784
10.97331739
11.15796834
11.32829011
11.48272689
11.61992461
11.73874507
11.83825716
11.91770969
11.97649356
12.01410083
12.03008662
12.02403789
11.99555224
11.94423331
11.86971874
11.77177732
11.65055016
11.50706959
11.34425728
11.16860872
10.99253808
10.8365986
10.72935956
10.70130244
10.77045559
10.92522114
11.11885498
11.28401311
11.35701727
11.29911741
11.13478353
10.92772459
10.748123
10.64883196
10.64835071
10.73320187
10.87420725
11.04207564
11.21498591
11.37945842
11.5282679
11.65799994
11.76725486
11.85558261
11.9229321
11.96939427
11.99509304
12.00014583
11.98465755
11.94873415
11.89251079
11.8161929
11.72010665
11.60475328
11.47085835
11.31940612
11.15165074
10.96909981
10.7734721
10.56663679
10.35054517
10.1271668
9.898439365
9.666237931
9.432364636
9.198556461
8.966506558
8.7378939
8.514416361
8.297823214
8.089944041
7.892712046
7.708180536
7.538532196
7.38608171
7.253273469
7.142677228
7.056985135
6.999012402
6.971699922
6.978109791
7.021394432
7.104709638
7.231035205
7.402868287
7.621766678
7.887743274
8.198529272
8.548371064
8.927443647
9.322442224
9.715917575
10.08588559
10.40664098
10.64953921
10.78431046
10.78058872
10.609125
10.24231206
9.654108046
8.819359399
7.714663776
6.329351744
4.690731737
2.96492657
1.569655545
0.8562917054
0.6162439227
0.624866545
0.7991394791
1.258431837
2.230032949
3.749543166
5.432484917
6.963444968
8.237401855
9.239430968
9.988059246
10.50279624
10.80436969
10.91648125
10.86547471
10.68057967
10.39292642
10.03341711
9.630988376
9.212353621
8.799085175
8.408246718
8.052262378
7.739380281
7.474293597
7.25883935
7.092710554
6.974122601
6.900381116
6.868315909
6.874573837
6.915789797
6.988670704
7.090029305
7.21679701
7.366033059
7.534936669
7.720861589
7.92132931
8.134036943
8.356856978
8.587827636
8.825133798
9.067079332
9.312052327
9.558485443
9.804814576
10.04944012
10.29069618
10.52683357
10.75602158
10.9763712
11.18597839
11.38298117
11.56562024
11.7322912
11.88157854
12.01226642
12.1233272
12.21389398
12.28322525
12.33066929
12.35563336
12.35756034
12.33591493
12.29018465
12.21991098
12.1247873
12.00489922
11.8612441
11.69673831
11.51793092
11.33739945
11.17600365
11.06267949
11.0280537
11.08969676
11.23492745
11.41623144
11.56725974
11.62721491
11.56099161
11.39555436
11.19314107
11.021533
10.93161644
10.94059635
11.03416567
11.18264757
11.35652258
11.53392848
11.7014272
11.85184122
11.9817844
12.08987517
12.17569105
12.23923285
12.28067421
12.30025158
12.29821859
12.2748308
12.23034818
12.16505211
12.07927621
11.97344943
11.84814657
11.70413815
11.54242945
11.36427877
11.17118883
10.96487136
10.74719094
10.52009931
10.2855722
10.04555931
9.801953524
9.556581114
9.31121072
9.06757647
8.827409852
8.592475205
8.364604628
8.14572913
7.937903831
7.743325754
7.564343459
7.40345863
7.263320857
7.146718049
7.056565671
6.995897061
6.967853252
6.975663251
7.02259516
7.111847917
7.246347549
7.42841547
7.659291748
7.93852079
8.263231077
8.627379879
9.021130438
9.429156179
9.833179959
10.20987008
10.53249159
10.7714807
10.89591353
10.87516157
10.67993495
10.28237251
9.65563479
8.772757888
7.607863329
6.153219551
4.456917028
2.736474663
1.467738913
0.8535581114
0.6419378682
0.6602251513
0.8506070983
1.324356502
2.240036486
3.670085017
5.331400911
6.89201071
8.211977689
9.258401966
10.04079244
10.58042851
10.89988731
11.02471357
10.98163264
10.79990912
10.51104548
10.14653018
9.736456013
9.307551014
8.882258179
8.478315985
8.108852442
7.782794141
7.505445209
7.279152128
7.103993573
6.978439748
6.899927044
6.865308259
6.871165913
6.914004145
6.990352261
7.096816375
7.23010817
7.387067779
7.564686953
7.760131619
7.970760113
8.194133514
8.428015863
8.670363559
8.919304317
9.173106696
9.430141763
9.688839071
9.947640186
10.2049543
10.45912179
10.70839217
10.95092233
11.184798
11.40807712
11.61884789
11.81529017
11.99572727
12.15865791
12.30276414
12.42689787
12.53005355
12.61133604
12.66993098
12.70508166
12.7160737
12.70222821
12.66290793
12.59755136
12.50577176
12.38759779
12.24399488
12.07788207
11.8958715
11.71070429
11.54351003
11.42346465
11.3810634
11.43302834
11.56535183
11.73006864
11.86290129
11.90742281
11.83341195
11.66996517
11.47650947
11.31699795
11.23949951
11.25982211
11.3631485
11.51965895
11.69982761
11.88184318
12.05232779
12.20414388
12.33392373
12.44030041
12.52288206
12.58172918
12.61710878
12.6293827
12.61895591
12.58625246
12.53170739
12.45577238
12.35893587
12.24175741
12.1049131
11.94924484
11.77580282
11.58587024
11.38096209
11.16279607
10.93324084
10.69425247
10.44781207
10.19587605
9.940346026
9.683060518
9.42580615
9.170343638
8.918442767
8.671920975
8.432681117
8.202745127
7.984281234
7.779623103
7.591279819
7.421936343
7.274445117
7.151810741
7.057170591
6.993773651
6.964956231
6.974105856
7.024593823
7.119646277
7.262118303
7.454141099
7.696630291
7.988669972
8.32681243
8.704356445
9.110660344
9.53052845
9.944414484
10.32725586
10.65164858
10.88731344
11.00283201
10.96746058
10.75182723
10.32734665
9.665802403
8.737748501
7.514661498
5.995966512
4.273439627
2.625430444
1.466481301
0.8905687102
0.6765461328
0.7001186137
0.911638437
1.421769157
2.326474363
3.673942644
5.288720487
6.85762987
8.21093628
9.292708715
10.10341916
10.66323611
10.9972511
11.13171431
11.09425077
10.91461089
10.62431112
10.25523609
9.837768044
9.399164086
8.962475206
8.546097019
8.1638224
7.825217115
7.53616721
7.299513504
7.115718598
6.983515394
6.900483846
6.863513263
6.869133281
6.913725437
6.993646472
7.105298875
7.24517701
7.409905046
7.596272085
7.801263229
8.022082991
8.256168021
8.501187634
8.755032037
9.015788994
9.281710076
9.55116796
9.822606905
10.09448967
10.3652458
10.63322786
10.89668325
11.15374834
11.40246883
11.64084449
11.86689031
12.07870051
12.27450136
12.45268185
12.61179896
12.75056227
12.86780695
12.9624653
13.03354346
13.08010625
13.10126968
13.09620074
13.06412822
13.00437947
12.9164811
12.80040109
12.65707398
12.48942799
12.30414682
12.11413189
11.94073529
11.81322205
11.76164064
11.80143619
11.91703762
12.06044036
12.17067359
12.19731675
12.11631408
11.95840522
11.77871066
11.63578988
11.5739902
11.60765385
11.72183459
11.8869672
12.0737558
12.26053126
12.43399055
12.58702603
12.71627895
12.82039507
12.89901803
12.95227705
12.98054389
12.98431867
12.9641723
12.92071417
12.85457403
12.76639651
12.65684997
12.52665124
12.37660474
12.20764996
12.02090659
11.81770518
11.59959293
11.36831044
11.12574367
10.87386169
10.61465451
10.35008338
10.08205178
9.812399404
9.542916857
9.275375716
9.011567773
8.753347624
8.502673934
8.261646
8.032533189
7.817795519
7.620094016
7.442290014
7.287433433
7.158741357
7.059569342
6.993377745
6.963692117
6.97404959
7.027912377
7.128518788
7.278637311
7.480196201
7.733781033
8.038019978
8.388899903
8.779070335
9.197197507
9.627457972
10.04932872
10.43776802
10.76405425
10.99731983
11.10569027
11.0583641
10.82568765
10.37751036
9.683758636
8.712672825
7.44120825
5.888767844
4.181070494
2.617313699
1.531563858
0.9507739613
0.7180415964
0.7457386756
0.9843003278
1.54642578
2.477219233
3.765310129
5.313551875
6.865581289
8.236289401
9.344684059
10.17820426
10.75401557
11.09835722
11.23908106
11.20479091
11.02559466
10.73308217
10.35919964
9.93453734
9.486722665
9.03930828
8.611259511
8.216963859
7.866572165
7.566515164
7.320107717
7.128190523
6.989763593
6.902560432
6.863518363
6.869124374
6.915645154
6.999270326
7.116202986
7.262724595
7.435249162
7.630371103
7.844905121
8.075914792
8.32072751
8.576935095
8.842380559
9.115132072
9.393445265
9.675715151
9.960419642
10.24605806
10.53109013
10.81388324
11.09267702
11.36557353
11.63055784
11.88554649
12.12845434
12.35726373
12.57007953
12.76515883
12.94091331
13.09589121
13.22875061
13.33823473
13.42315539
13.48238585
13.51486103
13.51958335
13.49563756
13.44223004
13.35879161
13.24522288
13.10242571
12.93334175
12.74473221
12.5496495
12.36960467
12.2337686
12.17138183
12.19614938
12.29072521
12.4075952
12.49049617
12.49677393
12.40983002
12.26143901
12.10078796
11.97935363
11.93679743
11.98594373
12.11214783
12.28653565
12.48029541
12.67199532
12.84842143
13.00248622
13.13083213
13.23211818
13.3060309
13.35277931
13.37285258
13.36690254
13.33568041
13.27999694
13.20069498
13.0986332
12.97468341
12.82974479
12.66477566
12.4808381
12.27914535
12.06109818
11.82829758
11.58252708
11.32570736
11.05983411
10.78691459
10.50891724
10.22774354
9.945224972
9.663142321
9.383261344
9.10737767
8.837364579
8.575218649
8.323099776
8.083363154
7.858581437
7.651555561
7.465312921
7.303092305
7.168316149
7.064552048
6.995465688
6.964764799
6.976126992
7.033093718
7.138901853
7.296219813
7.506763009
7.770784766
8.086466548
8.449251886
8.85117665
9.280255167
9.720007208
10.14926752
10.54244905
10.8704002
11.10178332
11.20469631
11.14793817
10.90117662
10.43372158
9.71328441
8.70865403
7.40481431
5.842477304
4.178939891
2.704311116
1.648016066
1.028135566
0.7663130861
0.7980489399
1.071206339
1.699354675
2.681960913
3.942029363
5.41573096
6.925172406
8.292270506
9.415277331
10.26511427
10.85261271
11.20363856
11.34741173
11.31367908
11.1330558
10.83722133
10.45809102
10.02632621
9.569782876
9.112372108
8.673515822
8.268107583
7.906817275
7.59657566
7.341146339
7.141738309
6.997619644
6.906684494
6.865927496
6.871801809
6.920466453
7.007949723
7.130260841
7.283474954
7.463804606
7.667660872
7.891702143
8.132867693
8.388394569
8.655817961
8.932956138
9.217881181
9.508876463
9.804381876
10.10292859
10.40306698
10.7032942
11.00199073
11.29737709
11.58750102
11.87026041
12.143459
12.40488227
12.65237428
12.88389606
13.09755393
13.29159764
13.46439877
13.61442372
13.74021283
13.84037086
13.91356782
13.95854652
13.97413377
13.95925856
13.91299374
13.83466163
13.72408494
13.58212721
13.41174441
13.21977736
13.01941172
12.83223333
12.68709641
12.61202148
12.61848088
12.68718845
12.77179301
12.8223098
12.80570742
12.71411297
12.5796237
12.44376746
12.34914224
12.32968772
12.39665136
12.53615375
12.72048461
12.92159207
13.11838594
13.2977589
13.45263635
13.57965721
13.67749792
13.74589876
13.7851627
13.79591129
13.77896299
13.7352643
13.66584301
13.57177242
13.45414482
13.31405715
13.15261407
12.97095129
12.77027653
12.55191886
12.31737119
12.06831028
11.80658457
11.53417053
11.25310886
10.96543776
10.6731401
10.37811542
10.08218002
9.787092064
9.494594323
9.20646649
8.924579644
8.650947424
8.387770277
8.13747043
7.902715885
7.686431836
7.491797852
7.322229561
7.18134456
7.072913809
7.000800509
6.968886602
6.980981058
7.040693804
7.151248463
7.315202532
7.53405198
7.80771963
8.133954525
8.507687075
8.920387669
9.359483306
9.807916685
10.24399347
10.64169542
10.97157812
11.20215423
11.30142584
11.23794798
10.98072268
10.49795017
9.756657948
8.728544945
7.410611669
5.867795017
4.275780275
2.877263351
1.80562484
1.121974829
0.8218891664
0.8578840234
1.174937306
1.883415458
2.934784304
4.194391052
5.599281698
7.045578499
8.385069913
9.506263043
10.36334419
10.9575188
11.31180915
11.45581047
11.42027523
11.23644482
10.93618345
10.55136836
10.11261954
9.64788151
9.181290933
8.732599932
8.317109556
7.945935052
7.626457193
7.362859198
7.156705249
7.007529307
6.91339045
6.871347685
6.877827632
6.928888172
7.020402425
7.148192677
7.308136721
7.496257457
7.70879757
7.942277061
8.193531442
8.459730159
8.738376345
9.027289464
9.324572103
9.628561513
9.937766466
10.25079105
10.56624952
10.88268008
11.19846922
11.51180062
11.82064089
12.12276857
12.41584126
12.69748479
12.96538011
13.21732551
13.45126215
13.665266
13.85752094
14.02629068
14.1699019
14.2867418
14.37526676
14.43401667
14.46163061