/*--------------------------------*- C++ -*----------------------------------*\
| =========                 |                                                 |
| \\      /  F ield         | OpenFOAM: The Open Source CFD Toolbox           |
|  \\    /   O peration     | Version:  v1806                                 |
|   \\  /    A nd           | Web:      www.OpenFOAM.com                      |
|    \\/     M anipulation  |                                                 |
\*---------------------------------------------------------------------------*/
FoamFile
{
    version     2.0;
    format      ascii;
    class       volScalarField;
    location    "90";
    object      nut;
}
// * * * * * * * * * * * * * * * * * * * * * * * * * * * * * * * * * * * * * //

dimensions      [0 2 -1 0 0 0 0];


internalField   nonuniform List<scalar> 
64485
(
0.0002740024163
0.0002536590631
0.000440436407
0.0006763349533
0.000942520708
0.001217886217
0.001491970148
0.001759050169
0.002018243618
0.002270920704
0.00252090439
0.002774012334
0.003038074496
0.003322957345
0.003639494099
0.003999767994
0.004416514218
0.004901796971
0.005464998152
0.006110008498
0.006831961518
0.007614500584
0.008429041303
0.00923722091
0.009996483841
0.01066727828
0.01122021605
0.01163340829
0.01190092926
0.01203075582
0.01203710489
0.01193700668
0.01174786971
0.0114859888
0.01116577959
0.01079952252
0.01039743467
0.009967929726
0.009517964128
0.009053399017
0.008579331838
0.008100369657
0.007620829345
0.007144859435
0.006676486074
0.006219592185
0.005777844756
0.005354589728
0.004952736257
0.004574651496
0.004222083155
0.00389612063
0.003597197054
0.003325125805
0.003079197069
0.002858300698
0.002660975753
0.002485500065
0.002329999327
0.002192528345
0.002071124349
0.001963863437
0.001868939197
0.00178466919
0.001709360213
0.001641565581
0.001580012807
0.001523638419
0.00147171922
0.00142404381
0.001381137096
0.001344497896
0.001316712153
0.001301164665
0.001301001714
0.001317402275
0.001347884928
0.001385052055
0.001418760144
0.001439242774
0.001440550673
0.001424090872
0.001397468041
0.001370818791
0.001353333717
0.001350347783
0.001362698157
0.001388218723
0.001423550161
0.001465744375
0.001512950118
0.001564400214
0.001620180769
0.001680972098
0.001747841592
0.001822090036
0.00190515123
0.001998705135
0.002104454232
0.002224124941
0.002359570356
0.002512679915
0.00268531741
0.002879269662
0.003096166786
0.003337392909
0.003604035818
0.003896790331
0.004215835004
0.004560768132
0.004930566784
0.005323580563
0.005737565133
0.006169753189
0.006616953375
0.007075661865
0.007542167827
0.008012633657
0.008483133255
0.008949635845
0.009407927912
0.009853470719
0.0102811955
0.01068524326
0.01105866268
0.01139308916
0.01167844349
0.01190271234
0.01205190796
0.01211035755
0.01206154405
0.01188977406
0.01158447948
0.01114620302
0.01058261617
0.009912967573
0.009166901596
0.008381052547
0.0075936285
0.006838483533
0.006140591373
0.005514145532
0.004963261815
0.004484311944
0.004068717691
0.003705405783
0.003382659595
0.003089311679
0.00281478892
0.002549904776
0.002287262515
0.002021326558
0.001748695151
0.001468484842
0.001183288248
0.0009008825928
0.0006346459898
0.0003937176029
0.000339200086
0.0002485111493
0.001613679558
0.002665432718
0.003798563043
0.004925419565
0.005957642865
0.006868668027
0.007658753529
0.008340640704
0.008930062095
0.009444105483
0.009900114903
0.01031549603
0.01070743347
0.01109218629
0.01148493867
0.0118990457
0.01234499947
0.0128291774
0.01335250381
0.01390933664
0.01448706488
0.01506691093
0.0156261258
0.016141219
0.016591618
0.01696163134
0.01724126656
0.01743097091
0.01753627912
0.01756563167
0.01752864477
0.01743477792
0.0172924661
0.01710867197
0.01688876587
0.01663663338
0.01635492194
0.01604535753
0.01570908249
0.01534698305
0.01495998615
0.01454931307
0.01411667982
0.01366443592
0.01319563401
0.01271402508
0.01222397868
0.01173033401
0.01123819571
0.01075269528
0.01027874386
0.009820802316
0.009382691035
0.008967469438
0.008577379262
0.008213818277
0.007877382082
0.007567954081
0.007284812535
0.007026741286
0.006792149413
0.006579195683
0.006385876022
0.006209998067
0.006049417595
0.005902176206
0.005766659733
0.005641946238
0.00552836274
0.005428251741
0.005346827688
0.005292652702
0.005276735314
0.005309025556
0.005392298006
0.005516228936
0.005655890459
0.005777916928
0.005850683377
0.005854635195
0.005792325815
0.005689075605
0.005578540255
0.005491456316
0.005446272926
0.005446754631
0.005486471202
0.005555358723
0.005644488612
0.00574798006
0.005862965424
0.005988830163
0.006126387819
0.006277238907
0.006443340868
0.006626796166
0.006829752345
0.007054164177
0.007301770365
0.007574073856
0.007872233631
0.00819695717
0.008548399791
0.008926064103
0.009328717272
0.009754355951
0.01020019985
0.01066272318
0.01113776276
0.01162068073
0.01210657065
0.01259048797
0.01306768038
0.01353379287
0.01398502584
0.01441823108
0.01483093835
0.01522131272
0.01558804776
0.01593020267
0.01624699192
0.01653753574
0.01680058003
0.01703419677
0.01723548249
0.01740028339
0.01752299171
0.01759647768
0.01761224217
0.01756088947
0.0174330106
0.01722058119
0.01692155235
0.01653938187
0.01608315468
0.01556805439
0.01501382792
0.01444224186
0.01387398685
0.01332584615
0.01280880758
0.01232739113
0.01188002479
0.01146005448
0.01105697274
0.01065758601
0.01024698984
0.009808958646
0.009326516874
0.008782419367
0.008159459157
0.007441182341
0.006613495013
0.005669696559
0.004620843066
0.003504880211
0.002253896889
0.0003141591187
0.0002182489601
0.001465680584
0.002683669323
0.004154733632
0.005685075618
0.007106697717
0.008356877725
0.009425348804
0.01032628365
0.01108107407
0.011713511
0.01224744537
0.01270612248
0.01311177954
0.01348535005
0.01384601714
0.01421057183
0.01459254547
0.01500115176
0.01544017791
0.0159071169
0.01639293203
0.01688285121
0.01735830344
0.01779961035
0.01818904106
0.01851139246
0.01876082429
0.01893728713
0.01904459276
0.01908908994
0.01907823439
0.0190193851
0.01891896625
0.01878200605
0.01861199372
0.01841096971
0.0181797654
0.01791832428
0.01762605602
0.01730219198
0.01694612293
0.01655770593
0.01613752845
0.01568711635
0.01520907011
0.01470711346
0.01418604191
0.01365156744
0.01311006776
0.01256826266
0.01203285258
0.01151016097
0.01100582112
0.01052453912
0.01006995107
0.009644575562
0.009249848011
0.008886218243
0.008553286743
0.008249958566
0.007974604127
0.007725194355
0.007499404787
0.007294746023
0.007108709793
0.006938926142
0.006783430079
0.00664111427
0.006512450283
0.006400527543
0.006312265827
0.006259194822
0.006256458406
0.006318278156
0.006449497694
0.006636723462
0.006845564112
0.007027993105
0.007136873764
0.007141948843
0.00704642526
0.006889075649
0.006719909263
0.006582831851
0.006502844173
0.006483942392
0.006516397442
0.00658623595
0.006681515187
0.006794560371
0.006921725471
0.007062267564
0.007217215727
0.007388533661
0.007578587633
0.007789835343
0.008024665823
0.008285284515
0.008573590483
0.008891093637
0.0092388207
0.00961717774
0.01002581369
0.01046349505
0.01092800902
0.01141611524
0.01192356557
0.0124452077
0.01297517555
0.01350715601
0.01403470847
0.01455160257
0.01505213569
0.01553139441
0.01598543384
0.01641136163
0.01680732616
0.01717241851
0.01750650318
0.01780999376
0.01808358802
0.01832797371
0.01854351509
0.01872993168
0.01888598706
0.01900921723
0.0190957437
0.01914023313
0.01913607703
0.01907586078
0.01895215439
0.01875855982
0.01849158788
0.01815516166
0.01775759519
0.01731217605
0.01683582075
0.01634685449
0.01586231234
0.01539545981
0.01495408006
0.01453977288
0.01414816012
0.01376967517
0.01339058586
0.01299398101
0.01256058293
0.01206934905
0.01149789126
0.01082289839
0.0100207228
0.009068823527
0.007949223372
0.006658445162
0.005227148686
0.00374603689
0.002228782247
0.0002812539739
0.0001930148293
0.001102599847
0.002200250666
0.003714276422
0.005377259331
0.00695855111
0.008363303378
0.009568485101
0.01058451674
0.01143260889
0.01213791895
0.0127261866
0.01322271309
0.01365182046
0.01403642217
0.0143975897
0.01475392977
0.01512075428
0.01550907691
0.01592454274
0.01636655222
0.01682792517
0.0172955447
0.01775213927
0.01817872117
0.01855640537
0.01887186889
0.01911944652
0.01929803506
0.01941051171
0.01946244277
0.01946064034
0.01941190797
0.01932214414
0.019195837
0.01903590048
0.01884376562
0.01861963794
0.01836284684
0.01807223361
0.01774654377
0.01738480212
0.01698665513
0.01655266574
0.01608454289
0.01558528515
0.01505921803
0.01451190974
0.01394996228
0.01338069117
0.01281172559
0.01225057508
0.01170421544
0.0111787417
0.01067912254
0.01020907074
0.009771025258
0.009366225272
0.008994847857
0.008656180586
0.008348804431
0.008070769117
0.007819753516
0.007593191147
0.007388377633
0.007202605211
0.007033337686
0.006878473968
0.006736799933
0.006608732731
0.006497421162
0.006410078424
0.006358944622
0.006360466532
0.006430697409
0.00657616919
0.006783667295
0.007016172505
0.007219932381
0.007340651598
0.007342563498
0.007229933307
0.00704820538
0.006854700371
0.006698225
0.006605209748
0.006578570231
0.006606654735
0.006673887341
0.006767373643
0.006879005465
0.007005002238
0.007144628415
0.007298978705
0.007470108759
0.007660501215
0.007872767112
0.00810947571
0.008373028335
0.008665568941
0.008988895957
0.009344328868
0.009732560211
0.01015349547
0.01060609662
0.0110882497
0.01159668157
0.01212695107
0.01267353497
0.01323001807
0.01378938125
0.01434436366
0.01488786007
0.01541330652
0.01591500866
0.01638837751
0.01683005298
0.01723791221
0.01761097295
0.01794921061
0.01825330945
0.01852436677
0.01876356488
0.01897182348
0.01914944611
0.01929578078
0.01940892792
0.01948554552
0.0195208189
0.01950867173
0.01944228509
0.0193149464
0.01912115469
0.01885771801
0.01852739803
0.01813985787
0.01770860408
0.01725031121
0.01678256027
0.01632114537
0.01587770997
0.01545819224
0.01506226712
0.01468363592
0.01431082904
0.01392819753
0.01351685583
0.01305545352
0.0125207315
0.01188800768
0.01113170388
0.01022613916
0.00914763119
0.00787912682
0.006424473322
0.004835041842
0.003255832556
0.001831190801
0.0002489582989
0.0001753276513
0.0007860049827
0.001721824558
0.003208205563
0.004945932077
0.006640905247
0.008161895348
0.009472720733
0.01057944682
0.01150260564
0.01226797349
0.01290231928
0.01343211266
0.01388289053
0.01427883209
0.01464229186
0.01499319544
0.01534826031
0.01572005116
0.0161159334
0.01653715998
0.01697836357
0.01742799427
0.01786994346
0.01828476492
0.01865380546
0.01896536299
0.01921235822
0.01939257695
0.01950804562
0.01956372574
0.0195660096
0.01952138353
0.01943545752
0.01931241258
0.01915481983
0.01896373999
0.01873900548
0.01847960281
0.01818409604
0.0178510527
0.01747944791
0.01706902853
0.01662061974
0.01613635289
0.01561979163
0.01507593429
0.0145110791
0.01393255379
0.01334833116
0.01276657205
0.01219515121
0.01164122454
0.01111088713
0.01060895267
0.01013886179
0.00970270679
0.009301345889
0.008934574597
0.008601323284
0.008299856637
0.008027958255
0.007783086651
0.007562502634
0.00736338466
0.00718294908
0.00701860465
0.006868203006
0.00673047623
0.006605772841
0.006497171939
0.006411878014
0.006362323796
0.006365561372
0.006438803825
0.006590041373
0.006806895979
0.007051315581
0.007266097552
0.007391989476
0.007389044586
0.007262975284
0.00706433082
0.006855417279
0.006687740204
0.006587773712
0.006556982951
0.006582158594
0.006646727825
0.006737357003
0.006845823389
0.00696835315
0.007104231659
0.007254557275
0.007421380432
0.007607189724
0.007814630734
0.008046350615
0.008304892955
0.008592601853
0.008911519319
0.009263257125
0.009648839454
0.01006852805
0.01052164448
0.01100640956
0.01151982575
0.01205763063
0.01261434698
0.01318344556
0.01375762108
0.01432916226
0.01489037817
0.01543403057
0.0159537196
0.01644417892
0.016901452
0.01732294066
0.01770733294
0.01805442894
0.01836488695
0.01863991178
0.01888090308
0.019089079
0.01926509122
0.01940865469
0.01951822924
0.01959080927
0.01962189677
0.01960574194
0.01953592173
0.01940627425
0.01921210544
0.01895144315
0.01862619333
0.01824637189
0.0178265665
0.01738343536
0.01693398254
0.01649282923
0.0160699944
0.01566955182
0.01528927819
0.01492107997
0.01455183439
0.01416435651
0.01373828218
0.01325078335
0.01267712078
0.01199110834
0.01116567109
0.01017378571
0.008991195217
0.007602248011
0.006018897198
0.004316324623
0.002697636441
0.001411855702
0.0002194509902
0.0001692523935
0.0005526188915
0.001315644544
0.002728499554
0.004510540216
0.006303983857
0.007932485601
0.009343565813
0.01053738702
0.01153336603
0.01235761493
0.01303769423
0.01360102128
0.01407414345
0.01448228726
0.01484889438
0.01519504327
0.01553870651
0.01589386578
0.0162694995
0.01666866512
0.01708780786
0.01751701798
0.01794120833
0.01834033303
0.0186989224
0.01900435336
0.01924842595
0.0194279413
0.01954415023
0.0196014536
0.01960584551
0.01956349978
0.01947973143
0.01935840356
0.01920173653
0.01901042232
0.01878393632
0.01852095579
0.01821981931
0.01787898452
0.01749745711
0.01707517033
0.01661329466
0.01611445397
0.01558282329
0.01502408666
0.01444524475
0.01385428075
0.0132597151
0.01267010063
0.01209352099
0.01153715495
0.01100695394
0.01050745754
0.01004174595
0.009611508638
0.009217196156
0.008858219776
0.00853316772
0.008240014412
0.007976307572
0.007739325618
0.007526204278
0.007334042559
0.007160010468
0.007001491622
0.006856318292
0.006723190931
0.006602398967
0.006496936356
0.006413939341
0.006365907511
0.006370299859
0.006445265915
0.006600132407
0.006823497405
0.007076740574
0.00729981484
0.007428999536
0.007420394055
0.007281537977
0.007067896922
0.006846205615
0.006669949667
0.00656510199
0.006531488858
0.006554431921
0.006616546088
0.006704222959
0.006809225443
0.006927826856
0.007059335769
0.007204838377
0.007366357351
0.007546363365
0.007747513745
0.007972509792
0.008224000469
0.008504494275
0.008816254819
0.009161167284
0.009540576837
0.009955104804
0.01040445534
0.01088723164
0.01140078722
0.01194114193
0.01250299229
0.01307983865
0.01366423693
0.01424816254
0.01482345216
0.01538227224
0.01591755665
0.01642336107
0.01689509703
0.01732962899
0.01772523694
0.01808146103
0.01839885174
0.01867864945
0.01892241409
0.01913162283
0.01930725437
0.01944938605
0.01955684535
0.01962697849
0.01965561974
0.01963735425
0.01956614938
0.01943636799
0.01924406442
0.01898831102
0.01867215429
0.01830366872
0.01789871165
0.01747390012
0.01704546339
0.0166266806
0.01622584939
0.01584516222
0.01548054857
0.01512222389
0.01475554057
0.01436192046
0.01391968029
0.01340468859
0.01279087849
0.01205070086
0.01115572666
0.01007775237
0.008792233683
0.007285878332
0.005581052179
0.003784197648
0.002163966271
0.00103730226
0.0001964469251
0.0001745262845
0.000399393082
0.000996721474
0.00229748879
0.004093569974
0.005971711808
0.007702112096
0.00921137441
0.01049167873
0.01156072682
0.01244467329
0.0131716839
0.01376997944
0.0142669834
0.01468885319
0.01506001886
0.01540262288
0.01573579126
0.01607480577
0.01643013528
0.01680655822
0.01720225508
0.01760899224
0.01801121537
0.01839303509
0.01873897945
0.01903577908
0.01927441965
0.01945090762
0.0195658255
0.01962305979
0.01962820793
0.01958710109
0.01950470938
0.01938451892
0.01922834106
0.01903644931
0.0188079268
0.01854112423
0.01823415657
0.01788539213
0.01749390389
0.01705986031
0.01658483214
0.01607198955
0.01552616333
0.01495375003
0.01436245561
0.01376089416
0.0131580827
0.01256289343
0.01198353371
0.0114271175
0.01089937226
0.01040449788
0.00994516718
0.009522638973
0.009136945425
0.008787116514
0.008471410893
0.008187531585
0.007932813446
0.007704376698
0.007499248807
0.007314464871
0.007147165262
0.006994724498
0.006854970386
0.006726585296
0.006609810239
0.006507556518
0.006426874416
0.006380272926
0.006385504315
0.00646150423
0.006618839356
0.006847163878
0.00710756806
0.007337501457
0.007468980552
0.007454182411
0.007302830504
0.007075348448
0.006842609878
0.006659578723
0.006551319193
0.00651588012
0.006537182122
0.006597157449
0.006682022116
0.006783576507
0.006898160672
0.00702510991
0.007165495011
0.007321305054
0.007494985372
0.007689196475
0.007906685117
0.008150196955
0.008422390929
0.008725735184
0.009062374188
0.009433964781
0.009841485981
0.01028503333
0.01076361511
0.01127497486
0.01181547057
0.01238004316
0.01296230276
0.01355474844
0.01414911649
0.01473682866
0.01530949029
0.0158593769
0.01637984903
0.01686564884
0.01731305292
0.01771987751
0.01808534993
0.01840986911
0.01869468143
0.0189414949
0.01915205229
0.01932768437
0.01946887223
0.0195748644
0.01964341787
0.01967075498
0.01965183813
0.01958104156
0.01945322866
0.01926511662
0.01901664856
0.01871194976
0.01835935012
0.01797238891
0.01756861377
0.01716327545
0.01676818975
0.01638991104
0.0160288063
0.01567905216
0.01532929238
0.01496345889
0.01456166743
0.01410099112
0.01355606481
0.01289956495
0.01210265201
0.01113563089
0.009969280374
0.0085791573
0.006955860863
0.00513553512
0.00326577905
0.001686548516
0.0007366101193
0.0001825155288
0.0001863984577
0.0003164022043
0.0007715704964
0.0019325043
0.003709809238
0.005655902892
0.007481250773
0.00908576122
0.01045121854
0.01159293124
0.01253681729
0.01331146603
0.01394578339
0.01446794612
0.01490492061
0.01528201643
0.01562235471
0.01594611714
0.01626976543
0.01660513414
0.01695863986
0.0173300568
0.01771133285
0.01809074966
0.01845380664
0.01878500648
0.01907076405
0.01930153479
0.01947273028
0.01958438676
0.01963993285
0.01964457371
0.01960376401
0.01952207067
0.01940253328
0.01924648469
0.01905371995
0.01882288569
0.01855198138
0.01823889476
0.01788192157
0.01748023701
0.01703429349
0.01654611873
0.01601948621
0.01545993111
0.0148745943
0.01427189528
0.01366106017
0.01305155756
0.01245251348
0.01187218164
0.01131753248
0.01079399884
0.01030538492
0.009853918092
0.009440406089
0.009064457455
0.008724726999
0.008419157289
0.008145197178
0.007899987173
0.00768050844
0.007483698415
0.007306542974
0.00714616427
0.00699993798
0.00686569779
0.006742118998
0.0066294051
0.006530391536
0.006452035161
0.006406813921
0.006412679301
0.00648921183
0.006648103298
0.006880101579
0.007146254059
0.007381829163
0.007514767724
0.007493389771
0.007329894329
0.007089716767
0.006847565348
0.006659388495
0.006548980985
0.006512531643
0.006532657302
0.006590736355
0.006672898236
0.006771023975
0.006881534046
0.007003790965
0.007138847141
0.007288655071
0.007455631812
0.007642436921
0.007851855499
0.008086718331
0.008349821206
0.008643823402
0.008971115961
0.009333657396
0.009732779883
0.01016897453
0.01064167088
0.01114903336
0.01168780471
0.01225323133
0.01283910425
0.01343793944
0.01404130148
0.0146402493
0.01522585691
0.0157897457
0.01632456067
0.01682433435
0.01728470257
0.01770296085
0.01807797036
0.01840993588
0.01870008279
0.018950259
0.01916248509
0.019338476
0.01947916628
0.01958428806
0.01965207717
0.01967920777
0.0196610664
0.01959244983
0.01946868984
0.01928706717
0.01904820511
0.01875699811
0.0184226218
0.01805733494
0.01767668414
0.01729586377
0.01692515464
0.01656939763
0.01622723143
0.01589118179
0.01554845059
0.01518164834
0.01476966757
0.01428841888
0.01371138413
0.01301006117
0.01215439914
0.01111354946
0.009857485646
0.008362378891
0.006624726324
0.004699088903
0.002784909601
0.00129184072
0.0005239486294
0.0001802007463
0.0001945324939
0.0002897639447
0.0006365391913
0.001645825358
0.003370372105
0.005365558112
0.007277416868
0.008973373176
0.01042169565
0.01163468719
0.01263782431
0.01345996563
0.01413064366
0.01467867524
0.01513170298
0.01551578739
0.01585494071
0.01617029852
0.0164793596
0.01679521285
0.01712584953
0.01747112073
0.01782679587
0.01818298433
0.01852584205
0.01884023703
0.01911258651
0.01933307939
0.01949673052
0.01960315836
0.01965539656
0.01965826515
0.01961680728
0.01953512466
0.0194157362
0.01925942323
0.01906544044
0.01883195404
0.01855658995
0.01823700902
0.01787145638
0.01745925
0.01700118051
0.01649979364
0.01595952546
0.0153866637
0.01478912183
0.01417603455
0.01355721279
0.01294252298
0.01234127201
0.01176167809
0.01121048858
0.01069277379
0.01021189189
0.009769593854
0.00936622341
0.009000966919
0.008672115467
0.00837731283
0.00811377355
0.007878463696
0.007668243243
0.007479974367
0.007310605756
0.007157251446
0.007017297177
0.006888591253
0.00676981141
0.006661133847
0.006565326191
0.006489248869
0.006445316416
0.006451593952
0.006528165787
0.006687718264
0.006922106896
0.007192575907
0.007432562594
0.007566154242
0.007537942032
0.007362825977
0.007111264732
0.006861432314
0.006669742849
0.006558395651
0.006521689993
0.006541067836
0.006597489226
0.006677079629
0.006771835067
0.00687826447
0.006995756124
0.007125341131
0.007268933021
0.007428918053
0.007607950911
0.007808848781
0.008034518363
0.008287879752
0.008571768557
0.008888807245
0.00924124259
0.00963075084
0.01005821715
0.01052350195
0.0110252147
0.01156052368
0.01212503796
0.01271279962
0.0133164178
0.01392735853
0.01453637784
0.01513405697
0.01571137525
0.01626024758
0.01677395948
0.01724745327
0.01767744415
0.01806236971
0.01840219276
0.01869808551
0.01895202316
0.01916631291
0.01934308434
0.01948377527
0.01958866588
0.0196565421
0.01968459683
0.01966868944
0.01960405382
0.01948645383
0.01931362975
0.01908669754
0.01881103329
0.0184961988
0.01815469033
0.01779971443
0.01744444947
0.01709846735
0.01676495426
0.01644095231
0.01611742143
0.01578027085
0.01541088768
0.01498703141
0.01448355162
0.01387288099
0.0131254393
0.01221005419
0.01109486056
0.00974925409
0.008150612619
0.006303721296
0.004287737733
0.002362924129
0.0009943566802
0.0003932057602
0.0001881753201
0.0002006739994
0.000288739913
0.0005904302165
0.001455062641
0.003085729782
0.005108948222
0.007097113459
0.008880329644
0.01040849273
0.01169052622
0.01275131807
0.01361986467
0.01432640793
0.01490033303
0.01536982385
0.01576153599
0.01610028825
0.01640806773
0.016703203
0.01699998389
0.01730663807
0.01762668693
0.0179572197
0.01828950904
0.0186106745
0.01890621526
0.01916281752
0.01937064591
0.01952451249
0.01962374955
0.01967106211
0.01967089293
0.01962783636
0.019545463
0.0194256935
0.01926868286
0.01907308424
0.01883654267
0.01855629338
0.01822977734
0.01785521833
0.01743212471
0.01696168534
0.01644702846
0.01589331218
0.01530762118
0.01469866188
0.01407627496
0.01345081631
0.01283248442
0.01223068471
0.01165351305
0.01110741402
0.0105970317
0.01012523528
0.009693277259
0.009301033219
0.008947276407
0.008629951449
0.008346424475
0.008093697506
0.007868582586
0.007667836415
0.007488260637
0.007326778083
0.007180503159
0.0070468385
0.006923653649
0.006809636512
0.006704945164
0.006612287705
0.006538427429
0.006495687947
0.006502167844
0.006578312938
0.006737657627
0.006973154961
0.007246481859
0.007489628277
0.007623098711
0.00758791375
0.007401872016
0.007140390063
0.006884674061
0.006691068425
0.006579895423
0.006543590811
0.006562579741
0.006617542976
0.00669467789
0.006786123048
0.006888479792
0.007001159083
0.007125167705
0.007262378514
0.007415145288
0.007586114458
0.007778128925
0.007994161357
0.008237242967
0.008510370063
0.008816379578
0.009157789923
0.009536607556
0.009954103808
0.0104105721
0.01090508299
0.01143526372
0.01199713792
0.012585067
0.01319183196
0.01380888012
0.01442673486
0.0150355351
0.01562564214
0.01618823588
0.01671582403
0.01720260512
0.0176446535
0.01803992173
0.01838807705
0.01869019949
0.01894837211
0.01916519167
0.01934322839
0.01948447069
0.01958981105
0.01965865832
0.01968879383
0.01967660098
0.01961776615
0.01950844772
0.01934674066
0.019134072
0.01887603858
0.01858224917
0.01826500172
0.01793702287
0.01760889541
0.01728780396
0.01697614009
0.01666954036
0.0163574336
0.0160246312
0.0156513933
0.01521444881
0.01468772008
0.01404272245
0.01324891002
0.01227405193
0.01108541453
0.009652015948
0.007953064731
0.00600448034
0.003917755866
0.002018923482
0.0007984312273
0.0003302904633
0.000200800142
0.0002066942406
0.0002965807161
0.0005878409515
0.001373335157
0.002895409735
0.004895174121
0.006946161829
0.008812238289
0.01041657549
0.01176486141
0.01288104245
0.01379402765
0.01453511389
0.0151342478
0.01562003043
0.01601952799
0.01635830804
0.0166591304
0.01694048965
0.01721821658
0.01750268811
0.01779846296
0.01810386245
0.01841141723
0.01870935781
0.01898401401
0.01922256864
0.01941538586
0.01955726377
0.01964738042
0.01968817902
0.01968373099
0.01963814049
0.01955437666
0.01943368113
0.01927550724
0.01907784779
0.0188377908
0.01855217066
0.01821822345
0.01783418902
0.01739982104
0.01691677195
0.01638881932
0.01582190097
0.01522393676
0.0146044362
0.01397392354
0.01334324592
0.01272285597
0.01212216709
0.01154906294
0.01100960799
0.01050796322
0.01004647522
0.009625886077
0.009245608439
0.008904019003
0.008598738529
0.008326879881
0.008085255854
0.007870544917
0.007679417203
0.00750862659
0.007355079222
0.00721589622
0.007088501776
0.00697079115
0.00686146821
0.006760680702
0.006671085152
0.006599348428
0.006557679363
0.006564134493
0.006639378997
0.006797637339
0.007032931712
0.007307607073
0.007552625792
0.007685231034
0.007643056996
0.007446954429
0.007177163807
0.006917425229
0.006723470837
0.006613512858
0.006578199921
0.006597119906
0.006650812413
0.006725614314
0.006813827081
0.006912144678
0.007019996691
0.007138363097
0.007269075416
0.007414454371
0.007577135846
0.007759983192
0.007966026201
0.008198394669
0.008460229802
0.008754564788
0.009084170465
0.009451365397
0.009857793172
0.01030417448
0.0107900482
0.01131352498
0.01187108746
0.01245748034
0.01306573537
0.01368736616
0.01431274324
0.01493162623
0.01553379557
0.01610970325
0.01665105697
0.01715126596
0.01760570365
0.01801177314
0.01836878666
0.01867768582
0.01894063423
0.01916051376
0.01934035502
0.01948274029
0.0195892367
0.0196599497
0.01969332143
0.01968631396
0.01963508449
0.01953615011
0.01938785777
0.01919177184
0.01895347212
0.01868232856
0.01839011915
0.01808877847
0.01778790136
0.01749264772
0.01720237836
0.01691252272
0.0166109005
0.016281511
0.01590357036
0.0154528857
0.01490262099
0.01422352536
0.01338418884
0.01235129004
0.0110913972
0.009573322874
0.007778674883
0.005738196528
0.00360459616
0.001768210445
0.000705374656
0.0003171223867
0.0002087245331
0.0002130842568
0.0003086216702
0.0006097147905
0.001363485155
0.002805692715
0.004769053622
0.006847098059
0.008774632918
0.01045030463
0.01186177639
0.01303074899
0.01398541186
0.0147589547
0.01538193378
0.01588325334
0.01629016825
0.01662891822
0.01692266016
0.01719170309
0.01745228824
0.01771574256
0.01798769765
0.01826769964
0.01854956558
0.01882272928
0.0190745052
0.01929277022
0.01946829603
0.019596049
0.01967518226
0.01970794088
0.01969802599
0.01964900423
0.01956316776
0.01944099591
0.01928116575
0.01908095498
0.01883686561
0.01854532942
0.01820340176
0.01780938476
0.01736333964
0.01686745255
0.01632621808
0.01574640809
0.01513680759
0.01450772723
0.01387033811
0.01323591081
0.01261506305
0.01201711945
0.01144966135
0.01091830099
0.01042666852
0.009976565293
0.009568221956
0.009200602565
0.008871710665
0.008578870035
0.008318966718
0.008088647894
0.00788447807
0.00770305602
0.007541098755
0.007395502762
0.007263399882
0.007142238121
0.007029940565
0.006925230714
0.006828252123
0.006741616757
0.006671895838
0.006631160986
0.006637353391
0.006711214953
0.00686749366
0.007101239346
0.007375703128
0.007621274473
0.007752304787
0.007703247416
0.007498106795
0.007221745979
0.006959884009
0.006767101977
0.006659320199
0.006625521199
0.006644650501
0.006697241077
0.00676982866
0.006854892023
0.006949215313
0.007052242391
0.007164924818
0.007289053438
0.007426916775
0.007581139276
0.0077546008
0.007950380606
0.008171695558
0.008421816555
0.008703954649
0.009021112451
0.009375899365
0.009770312074
0.01020548543
0.01068142462
0.01119673813
0.01174840269
0.01233160349
0.01293969934
0.01356435786
0.01419588447
0.01482373437
0.01543715808
0.01602589986
0.01658085576
0.01709460664
0.01756176699
0.01797912385
0.01834556979
0.0186618541
0.01893018502
0.01915371625
0.01933595086
0.01948010214
0.01958847096
0.01966193272
0.01969966523
0.01969926849
0.01965739391
0.01957088639
0.01943824751
0.01926101476
0.01904453352
0.01879769081
0.01853150512
0.01825689603
0.01798226721
0.01771154222
0.0174430718
0.01716954407
0.01687765481
0.01655109954
0.01616809875
0.01570363173
0.01513031227
0.01441828222
0.01353533405
0.01244680363
0.01111885103
0.009520384789
0.007635825417
0.005515814392
0.003375200593
0.001647703268
0.0006870820915
0.0003228859944
0.000215993446
0.000220133797
0.0003240017743
0.0006486686981
0.0014100306
0.002804711889
0.004731416024
0.006821676735
0.008794238342
0.0105254223
0.01198994547
0.01320402906
0.01419684375
0.01500012085
0.01564473222
0.01616016785
0.01657445313
0.01691376235
0.01720196526
0.01745982125
0.01770419382
0.0179471799
0.01819537955
0.01844949952
0.01870462918
0.01895145737
0.01917840446
0.01937421576
0.01953026398
0.01964185755
0.01970824731
0.01973153673
0.01971504937
0.01966175912
0.01957320012
0.01944900434
0.01928700043
0.01908370234
0.01883500556
0.01853694753
0.01818643714
0.01778189421
0.01732375686
0.01681481888
0.01626035928
0.01566803279
0.01504750955
0.01440988569
0.01376692737
0.01313024721
0.01251052932
0.01191690925
0.01135657859
0.01083463326
0.01035413602
0.009916332556
0.00952095196
0.00916653274
0.008850734472
0.008570613957
0.008322857824
0.008103970669
0.007910421013
0.007738749213
0.007585643692
0.007447995589
0.007322948753
0.00720797458
0.007101023563
0.007000840219
0.006907568168
0.006823780511
0.006755952904
0.006715997391
0.006721667271
0.006793638072
0.006947009516
0.007177810036
0.007450441415
0.007695209056
0.007823987649
0.007768271289
0.007555263463
0.007274183475
0.007012126968
0.00682199762
0.00671729116
0.0066854809
0.006705073409
0.006756723602
0.006827217586
0.006909220906
0.006999603764
0.007097820302
0.007204793369
0.00732227544
0.007452525477
0.007598157458
0.007762065743
0.007947373358
0.00815737452
0.008395456051
0.008664989212
0.008969187363
0.0093109275
0.009692536091
0.01011554243
0.01058040699
0.01108623987
0.01163053617
0.01220896957
0.01281529694
0.01344142767
0.0140776955
0.01471333675
0.01533713659
0.01593816573
0.01650650898
0.01703388795
0.01751410383
0.01794326014