/*--------------------------------*- C++ -*----------------------------------*\
| =========                 |                                                 |
| \\      /  F ield         | OpenFOAM: The Open Source CFD Toolbox           |
|  \\    /   O peration     | Version:  v1806                                 |
|   \\  /    A nd           | Web:      www.OpenFOAM.com                      |
|    \\/     M anipulation  |                                                 |
\*---------------------------------------------------------------------------*/
FoamFile
{
    version     2.0;
    format      ascii;
    class       volScalarField;
    location    "0";
    object      p;
}
// * * * * * * * * * * * * * * * * * * * * * * * * * * * * * * * * * * * * * //

dimensions      [0 2 -2 0 0 0 0];


internalField   nonuniform List<scalar> 
64485
(
-1.760070974
-2.221314256
-2.501732499
-2.652806634
-2.635229482
-2.572454942
-2.521421162
-2.460254573
-2.397372064
-2.329289774
-2.260041211
-2.190589195
-2.119105721
-2.049499608
-1.992762019
-1.945152773
-1.905685824
-1.873413324
-1.84683109
-1.824111364
-1.803406799
-1.783126098
-1.762117035
-1.739710204
-1.715631524
-1.689844713
-1.66240856
-1.63341415
-1.602910296
-1.570850252
-1.537167913
-1.501875407
-1.465039947
-1.426736197
-1.387019746
-1.345912812
-1.303397029
-1.259413518
-1.213869198
-1.166647393
-1.117620691
-1.066664182
-1.013667751
-0.9585463953
-0.9012476071
-0.8417550793
-0.780088371
-0.7162983506
-0.6504582799
-0.582649964
-0.5129423262
-0.4413512503
-0.3677338416
-0.2914301966
-0.2115968118
-0.1286918757
-0.04428022149
0.04098094741
0.1272652619
0.2150608626
0.3053130377
0.3986155631
0.4995363812
0.6133293459
0.7326328671
0.8518165961
0.9705312943
1.088473125
1.204223105
1.315978564
1.42197722
1.520971
1.612830974
1.699083848
1.783165316
1.868959535
1.962572283
2.051468985
2.123006562
2.166343245
2.176021282
2.153806897
2.10681575
2.043136337
1.967764022
1.881662418
1.784944599
1.683285773
1.575371458
1.458098336
1.333712017
1.205630268
1.076524281
0.948310384
0.8218442133
0.6969124905
0.5758136694
0.467526197
0.3700754066
0.2758729696
0.1844648113
0.09489110855
0.006744004881
-0.07983524491
-0.1638129055
-0.2444694126
-0.3223546387
-0.3982139586
-0.4722339828
-0.5444255004
-0.6147319568
-0.6830697612
-0.7493503925
-0.8134961765
-0.8754524164
-0.9351960308
-0.9927403368
-1.048135841
-1.101467198
-1.152846822
-1.202405827
-1.250282996
-1.296612318
-1.341509784
-1.385060812
-1.42731031
-1.468257273
-1.507854796
-1.546019906
-1.582667522
-1.617761092
-1.651295228
-1.683229131
-1.713486719
-1.741991413
-1.768674915
-1.793506709
-1.81657735
-1.838219293
-1.859122247
-1.880380361
-1.903422812
-1.929823617
-1.961027394
-1.998069448
-2.041469284
-2.094491633
-2.150612118
-2.204739557
-2.257755009
-2.309291403
-2.357803331
-2.399369452
-2.440502371
-2.463868941
-2.519706066
-2.36963675
-2.2760665
-1.783834747
-4.30679187
-4.769656976
-5.068685223
-5.066113453
-4.834330024
-4.469043329
-4.197360699
-3.929959694
-3.692672931
-3.471021274
-3.269762929
-3.088819592
-2.924516238
-2.748015693
-2.5842226
-2.437785211
-2.306753663
-2.188056835
-2.078093928
-1.973467501
-1.871660579
-1.771489247
-1.673224503
-1.578333688
-1.48892323
-1.407085129
-1.334378279
-1.271521176
-1.218253058
-1.173470669
-1.135632446
-1.103101743
-1.074302091
-1.047793509
-1.022309814
-0.9967600026
-0.9702062796
-0.9418341202
-0.9109229883
-0.8768222104
-0.8389338842
-0.7967024826
-0.7496101478
-0.6971765722
-0.6389617936
-0.5745699771
-0.5036524765
-0.4259086281
-0.3410826116
-0.2489541205
-0.1493188883
-0.04195096954
0.07346996016
0.1975065179
0.3315356648
0.4762581158
0.6296174252
0.7896185365
0.9553225987
1.126417092
1.302658283
1.481926817
1.667534637
1.872329691
2.092582138
2.319439811
2.549781192
2.782745739
3.015575552
3.244551528
3.465882285
3.676417563
3.874306012
4.059113939
4.230708983
4.388577258
4.53987393
4.674862425
4.778146562
4.837534305
4.847898369
4.812416222
4.739577962
4.637917371
4.511818563
4.361568118
4.187732808
3.993387875
3.776157216
3.537234545
3.284942907
3.027537493
2.771215452
2.520161178
2.276245088
2.040139977
1.817773736
1.619373825
1.432393826
1.248035188
1.069053461
0.896260512
0.7302289423
0.5722330162
0.4240621731
0.2859093597
0.1564563939
0.0351856428
-0.07819290658
-0.1838704572
-0.2820083856
-0.3727769653
-0.4563771159
-0.5330523722
-0.6030947655
-0.666846461
-0.7246982419
-0.7770858083
-0.8244849992
-0.8674074171
-0.9063981626
-0.9420374215
-0.9749469067
-1.005801431
-1.035346144
-1.064419784
-1.093982005
-1.125138435
-1.159155554
-1.197466614
-1.241653739
-1.293301358
-1.353681516
-1.423479463
-1.50266297
-1.590426006
-1.68524694
-1.785173676
-1.888309066
-1.993372595
-2.10015216
-2.20967968
-2.324059495
-2.445979582
-2.577988092
-2.721925045
-2.876241717
-3.018823262
-3.163296783
-3.323099606
-3.49845258
-3.68669774
-3.887464831
-4.098957207
-4.33151233
-4.566706311
-4.523001141
-4.514692705
-3.753051162
-6.301404225
-6.467355165
-7.16776437
-6.999052915
-6.631544228
-5.988533998
-5.478924658
-4.943833638
-4.457649674
-4.003010224
-3.589392161
-3.216872644
-2.884427945
-2.589612025
-2.332312264
-2.109764008
-1.917425259
-1.750111138
-1.602533705
-1.469814765
-1.348003455
-1.234446934
-1.127910124
-1.028401148
-0.9367489071
-0.8540772871
-0.7812978212
-0.7186598388
-0.6655709003
-0.6207920489
-0.582744351
-0.5497119465
-0.5199755829
-0.4919129341
-0.4640599321
-0.4351309202
-0.4040101792
-0.3697290094
-0.331437123
-0.2883742176
-0.2398455157
-0.1852022377
-0.1238265127
-0.05512023607
0.0215027673
0.1066221701
0.2008148707
0.3046574194
0.4187275451
0.5436057786
0.6798794571
0.8281527205
0.9890650904
1.163304354
1.351504981
1.553678155
1.769037562
1.996747185
2.236232194
2.487082931
2.748796358
3.019800824
3.294936657
3.576645804
3.874948792
4.188560779
4.512317477
4.842575935
5.175687675
5.507502597
5.833678661
6.150111016
6.45317618
6.739486528
7.004906787
7.242946196
7.443097484
7.602098156
7.714208626
7.775102831
7.784188312
7.743316852
7.654751962
7.520432719
7.342106606
7.122036057
6.863458326
6.569137638
6.244688907
5.900483035
5.545610849
5.18751586
4.832422804
4.485110105
4.149244747
3.82866927
3.527276847
3.238475785
2.953454454
2.677797213
2.413335131
2.160922597
1.921096666
1.694557782
1.48204358
1.283792217
1.099367133
0.928209248
0.7697707344
0.6235137052
0.4888959254
0.3653626764
0.2523449173
0.1492613661
0.05552194152
-0.02946948297
-0.1063142318
-0.1756201305
-0.2380046526
-0.2940999169
-0.3445600521
-0.3900721267
-0.4313716377
-0.4692623457
-0.5046396992
-0.5385167246
-0.5720491071
-0.60655293
-0.6435059804
-0.6845293556
-0.7313501619
-0.7857034514
-0.8490845773
-0.9224352745
-1.006002898
-1.099409968
-1.201821526
-1.312255753
-1.430030186
-1.55522794
-1.689041428
-1.833881172
-1.993212524
-2.171166757
-2.372046186
-2.599809156
-2.857178865
-3.14483296
-3.464578806
-3.818224181
-4.205235759
-4.620157333
-5.062052267
-5.51108089
-5.970155182
-6.374866454
-6.490710438
-6.186370414
-5.420425407
-8.169144453
-7.866289858
-8.641538891
-8.327153551
-7.792303893
-6.860376618
-6.158761094
-5.430459559
-4.779134651
-4.177356728
-3.635759715
-3.152186979
-2.723978084
-2.345475919
-2.014976905
-1.729083875
-1.482565991
-1.269341932
-1.083245439
-0.9186402064
-0.7709289661
-0.636887182
-0.5147458302
-0.4039999651
-0.3049985557
-0.2184394126
-0.1447928394
-0.08382885656
-0.03454402604
0.00461612807
0.03554277651
0.06030337495
0.08098905099
0.09958493669
0.1178887046
0.1374788063
0.1597185652
0.1857812286
0.2166857889
0.253336377
0.2965599267
0.347139486
0.4058426139
0.4734446228
0.5507461696
0.6385846787
0.7378391275
0.8494277603
0.9742986914
1.113414143
1.267730036
1.438172718
1.625611419
1.830814834
2.05436066
2.296458006
2.556838425
2.834925061
3.130035507
3.441464178
3.768364042
4.109459973
4.464514598
4.834452757
5.219299458
5.616730594
6.023102562
6.4347073
6.847662618
7.257752345
7.66043126
8.050821058
8.423525282
8.772206941
9.089219024
9.366085394
9.595605161
9.772040759
9.892232973
9.956108943
9.965428036
9.920492433
9.818903476
9.658085006
9.438145497
9.16314874
8.840625524
8.47963657
8.089193114
7.677340303
7.251967542
6.820314198
6.38847704
5.961485765
5.543527939
5.138289945
4.748733659
4.37544262
4.017386528
3.674134601
3.346754579
3.036211015
2.743257567
2.46854014
2.212504848
1.975207365
1.756320856
1.555295241
1.371442631
1.203977741
1.052042589
0.9147283433
0.7910973367
0.6802045739
0.5811168447
0.4929271664
0.4147624631
0.3457835986
0.2851784699
0.232149365
0.1858955413
0.1455910944
0.1103576627
0.07923234979
0.05113268786
0.02482147973
-0.001123730318
-0.02832877551
-0.05861716995
-0.09397240064
-0.1364735545
-0.1882017584
-0.2510538112
-0.3264276634
-0.4149992175
-0.5167879294
-0.6313969017
-0.7583356122
-0.8974540568
-1.049396162
-1.215942669
-1.400140315
-1.606175173
-1.839014493
-2.103875856
-2.405546843
-2.747500461
-3.13124857
-3.560835963
-4.039946319
-4.570338246
-5.145804516
-5.773842063
-6.412081489
-7.130958249
-7.7469744
-8.061204475
-7.70010587
-7.202858356
-9.090974774
-8.509274373
-9.59309447
-9.27391638
-8.736890016
-7.648691558
-6.816156272
-5.924072625
-5.114296346
-4.359998182
-3.678550625
-3.070062301
-2.534119135
-2.067269692
-1.66456634
-1.319816548
-1.025810139
-0.7748887813
-0.5595378053
-0.3729155419
-0.2093097571
-0.06445823359
0.06434754383
0.1784156319
0.2780247653
0.3629743254
0.4332469924
0.4894377573
0.5327820525
0.5650182603
0.5882546905
0.6048160853
0.6170693664
0.6272744545
0.6374889508
0.6495271236
0.664960392
0.6851445673
0.7112620915
0.7443706434
0.7854517135
0.8354551561
0.8953378957
0.9660957094
1.048786706
1.144544791
1.254581652
1.380176257
1.522651839
1.683341744
1.863546599
2.064485551
2.287242468
2.532703324
2.801476144
3.093796393
3.409493472
3.748071473
4.108804639
4.490770183
4.892802127
5.313397853
5.750898082
6.204497327
6.673546445
7.15598098
7.648540569
8.147306093
8.647894637
9.145463986
9.634638978
10.10931018
10.56223865
10.98453908
11.36545939
11.69329623
11.95789585
12.15432346
12.28310086
12.34865309
12.35545642
12.30277362
12.18418413
11.99309083
11.72807457
11.39464594
11.00345378
10.56672073
10.09595938
9.601612553
9.0927139
8.576809395
8.060281959
7.548535794
7.04612963
6.556800783
6.083203201
5.626467404
5.186928215
4.766114642
4.365506714
3.986377289
3.629714963
3.296259782
2.986462091
2.700411613
2.437830142
2.198139711
1.980526032
1.783988086
1.607382166
1.449465495
1.308939529
1.184490533
1.074824692
0.9786954348
0.894920543
0.8223872965
0.7600458391
0.7068924646
0.6619449576
0.6242114925
0.592653728
0.5661447645
0.5434243223
0.5230554252
0.5033888192
0.4825439385
0.4584188038
0.4287400973
0.3911507496
0.3433195203
0.2830899562
0.2087354568
0.1192180853
0.01417315434
-0.1064041631
-0.2425648264
-0.3948571828
-0.5647761399
-0.755085823
-0.9699271405
-1.214685919
-1.495660661
-1.819598316
-2.193159165
-2.622385559
-3.112459303
-3.667566723
-4.289675992
-4.979848711
-5.727913102
-6.545221072
-7.360223821
-8.30170123
-9.015966683
-9.396333162
-8.802254314
-8.674781332
-9.130962389
-8.686026337
-9.90178914
-9.615556238
-9.143119396
-8.022851592
-7.147711373
-6.170559362
-5.263331517
-4.404686582
-3.620976204
-2.916830192
-2.294713022
-1.752300325
-1.284980504
-0.8861409441
-0.5478250119
-0.2614557656
-0.01854611934
0.1886995021
0.3669087573
0.5212163956
0.6551421538
0.7707061044
0.8687894076
0.9497529717
1.01408425
1.062738018
1.097194586
1.119429553
1.131820303
1.136979828
1.13756318
1.136105112
1.134915647
1.136033617
1.141226729
1.152023396
1.169762961
1.195654091
1.230833972
1.276423295
1.333574052
1.403508146
1.487544747
1.587113774
1.703753317
1.839089739
1.994800734
2.172563746
2.373993978
2.600576791
2.853598673
3.13407927
3.442706662
3.779785008
4.145217642
4.53853581
4.958946186
5.405365011
5.876413914
6.370477043
6.885898959
7.420827575
7.972886598
8.538967736
9.115243923
9.697330026
10.28035102
10.85889992
11.42688463
11.97722108
12.50135186
12.98872006
13.42666727
13.8016705
14.10246536
14.32339797
14.46583082
14.53624138
14.54061338
14.47751632
14.33816933
14.11401635
13.80353176
13.41398006
12.95871403
12.45268401
11.90947101
11.34035776
10.75462272
10.16007962
9.563405186
8.970378872
8.386020888
7.81463517
7.259748229
6.724024103
6.2094823
5.7178145
5.250671617
4.809505198
4.395476023
4.009421411
3.651828554
3.322803609
3.022070266
2.74900159
2.502664631
2.281868908
2.085218972
1.911171933
1.758097709
1.624337076
1.508252327
1.408267198
1.322893724
1.250743913
1.190525597
1.141023874
1.10107091
1.069506831
1.045133769
1.02666445
1.012667889
1.001517248
0.9913475376
0.9800333885
0.9652000779
0.9442805697
0.9146202396
0.8736101795
0.8188296353
0.7482293174
0.6603591678
0.5544197889
0.4299561995
0.2863627612
0.1224001158
-0.06423881817
-0.2772282999
-0.5216970176
-0.8040847493
-1.131801737
-1.512738544
-1.954672844
-2.464646345
-3.048387981
-3.710146519
-4.451072755
-5.271044303
-6.154642957
-7.117317408
-8.057314891
-9.173659256
-9.937590102
-10.35900024
-9.612556548
-9.909888037
-7.977193149
-8.075619827
-9.344598128
-9.240875375
-8.982440126
-8.031085354
-7.21419316
-6.226821813
-5.268293633
-4.336285141
-3.470964411
-2.685582068
-1.988121453
-1.379347634
-0.8556438475
-0.4103294784
-0.03486307688
0.2801700018
0.544205421
0.7660082353
0.9531504324
1.111659587
1.245861592
1.358467548
1.450977409
1.524320155
1.579413592
1.617483742
1.640223657
1.649839106
1.648965007
1.640483209
1.627314271
1.612244668
1.597814823
1.586269192
1.579558028
1.579375404
1.587218382
1.604455526
1.632396362
1.672355986
1.725710797
1.793942271
1.878666079
1.981643272
2.104770804
2.250050273
2.419535819
2.615264919
2.839178324
3.093036403
3.378338684
3.696252002
4.047551549
4.43258022
4.851233622
5.302971824
5.78684422
6.301508855
6.845247421
7.415982343
8.011334017
8.628665135
9.264930688
9.916472469
10.57897395
11.2475068
11.91655696
12.57996422
13.2307314
13.86066012
14.45981232
15.01594633
15.51441499
15.9395357
16.27818277
16.52418224
16.68006993
16.75463602
16.75558858
16.6808714
16.51934509
16.26053148
15.90282955
15.45521268
14.93351896
14.35499892
13.73498237
13.08606216
12.41846893
11.74066908
11.0598852
10.38241545
9.71379046
9.05881928
8.421577057
7.805426445
7.213185511
6.647369588
6.110173577
5.603441101
5.128624017
4.686762863
4.278469336
3.903914178
3.562830811
3.254538962
2.977982918
2.731780509
2.514281827
2.32363723
2.157871978
2.014961323
1.892898062
1.789746665
1.703681035
1.633004099
1.576148216
1.531657133
1.498152272
1.47428689
1.458691536
1.449913434
1.446352845
1.446201813
1.44739404
1.447577679
1.444125515
1.434196002
1.414850015
1.383206896
1.336602392
1.272731702
1.189793875
1.086551716
0.9620891793
0.8152709386
0.6441856757
0.4457128186
0.2152473588
-0.05336359866
-0.3676551633
-0.7361796883
-1.167975711
-1.671903043
-2.255881163
-2.926001622
-3.685677138
-4.533549748
-5.465764274
-6.458568904
-7.525322133
-8.531414938
-9.720473423
-10.42896693
-10.7965858
-9.780373175
-10.32619272
-6.225969782
-6.849225377
-7.951930324
-8.122263032
-8.17175352
-7.561819744
-6.903997766
-5.994513087
-5.048712161
-4.09228521
-3.1822684
-2.343682668
-1.592038729
-0.9327246696
-0.3647228376
0.1174692809
0.5221286039
0.8589624886
1.138010401
1.368787224
1.559666141
1.717469524
1.847260432
1.952434488
2.035147225
2.096873403
2.138899426
2.162701749
2.170197191
2.163828061
2.146478589
2.121282485
2.091405032
2.059861815
2.029400643
2.002450122
1.981125057
1.967272113
1.962538759
1.96845205
1.986497892
2.018194308
2.065153963
2.12913166
2.212053325
2.316022927
2.443304274
2.596276944
2.777368497
2.988968285
3.233331119
3.512480321
3.828118845
4.181554972
4.5736466
5.004766375
5.474788288
5.983092327
6.528578881
7.109684181
7.724391986
8.3702551
9.044404913
9.743511159
10.4637153
11.20057856
11.94906782
12.70356233
13.45783451
14.20495524
14.93707263
15.64501707
16.31773022
16.94165626
17.50056355
17.97688582
18.35562154
18.62942143
18.80108599
18.88104276
18.87842772
18.79061145
18.60454543
18.30857993
17.90175544
17.39511417
16.80692525
16.15647848
15.46058441
14.73284396
13.98419967
13.2237261
12.45922436
11.6975794
10.9449382
10.20677726
9.487917995
8.792542026
8.12424728
7.486121976
6.880804234
6.310480045
5.776866666
5.281197499
4.824211668
4.406148196
4.026751069
3.685288999
3.38059032
3.111092466
2.874905171
2.669886072
2.493726211
2.344039691
2.21844798
2.114649667
2.03047045
1.963891544
1.913055925
1.876252716
1.851882018
1.838403925
1.834276198
1.837884611
1.847469937
1.861057406
1.876398033
1.890935032
1.901811484
1.905933437
1.900094525
1.881148867
1.846189035
1.792679899
1.718529179
1.622078829
1.501900909
1.356302654
1.18271376
0.9772220702
0.7343322713
0.446940704
0.1065445879
-0.2963349117
-0.7715248048
-1.328380059
-1.974784664
-2.715912034
-3.55296697
-4.480511297
-5.488384738
-6.541704941
-7.644626442
-8.63255852
-9.757814768
-10.32308091
-10.61355418
-9.44667568
-9.84432908
-4.042184449
-4.829864386
-5.91521472
-6.404025817
-6.823510215
-6.647911443
-6.225507617
-5.466284538
-4.589022721
-3.652599319
-2.732679975
-1.868450724
-1.084673467
-0.3927519077
0.2047410367
0.7113586949
1.134537564
1.483860552
1.769671151
2.002016862
2.189909794
2.340837183
2.460525421
2.553035937
2.621125272
2.666719122
2.691411445
2.696913897
2.685362106
2.659421003
2.62220191
2.577065052
2.527394222
2.476407549
2.427034566
2.381865199
2.343160637
2.312908015
2.2929001
2.284824792
2.29035405
2.311225079
2.349308595
2.406658935
2.485541344
2.588432659
2.717992453
2.877004423
3.068291622
3.29461287
3.558550677
3.86240198
4.208081661
4.59704549
5.030235218
5.508045275
6.030308323
6.5962944
7.204717259
7.853742547
8.540996745
9.263574763
10.01804827
10.80045754
11.60627883
12.43039128
13.26706137
14.10993438
14.95199851
15.78547442
16.60157531
17.3900876
18.13876585
18.83267187
19.45391252
19.98293871
20.40274549
20.70478285
20.89220358
20.97726124
20.97065624
20.86910842
20.65750903
20.32301672
19.86540691
19.29787768
18.64112889
17.91642655
17.14201891
16.33258122
15.49992741
14.65388726
13.80296237
12.95471512
12.11596115
11.29284509
10.49086243
9.714873988
8.969136894
8.25734352
7.582636051
6.947604925
6.354279855
5.804123412
5.298027339
4.836313034
4.418739658
4.044523737
3.712373255
3.420538497
3.166880028
2.948951928
2.764097126
2.609549889
2.482536386
2.380361768
2.300474951
2.24050755
2.198286998
2.171824645
2.159280795
2.158910098
2.168992239
2.187753265
2.213282799
2.243453673
2.27585392
2.307745534
2.336067964
2.357501806
2.368598814
2.365966242
2.346461501
2.30733163
2.246244449
2.161196127
2.050269877
1.911200998
1.740792621
1.534416217
1.285776684
0.986939894
0.6286036946
0.2006026852
-0.3073350006
-0.9045748796
-1.598295135
-2.391839802
-3.28287674
-4.259957511
-5.303448568
-6.363978918
-7.425878433
-8.297468951
-9.176138721
-9.465746382
-9.578163598
-8.398934605
-8.302722404
-1.744403039
-2.49668099
-3.65490109
-4.406337952
-5.096887106
-5.310730878
-5.159254412
-4.6051219
-3.85013616
-2.981495237
-2.091746317
-1.234796437
-0.4456009374
0.2572608391
0.8665473849
1.382931756
1.812274776
2.163488626
2.446808538
2.672501541
2.849980829
2.987244203
3.090601615
3.16470211
3.212801685
3.237202287
3.239777571
3.222466337
3.187610634
3.138075387
3.077170638
3.00845289
2.93549335
2.861681367
2.790098247
2.723468761
2.664179235
2.61434239
2.57588847
2.550665802
2.540539304
2.547478876
2.573631973
2.621374846
2.693336496
2.792391019
2.921615907
3.08421707
3.283425863
3.522377828
3.803985679
4.130819398
4.505003928
4.928140624
5.401253552
5.924757635
6.498443699
7.121474572
7.792386243
8.509090436
9.268877
10.06841621
10.90375596
11.77031376
12.6628676
13.57555051
14.50185038
15.43460275
16.36594892
17.28721731
18.18867243
19.05907776
19.88505836
20.65037859
21.33556607
21.91910073
22.38183417
22.71371563
22.91795784
23.00852437
22.99765849
22.88137877
22.64256931
22.26747653
21.75698261
21.12667975
20.39971828
19.59923751
18.74481456
17.85212822
16.93383795
16.0005573
15.061549
14.12512675
13.19885103
12.28960542
11.40361474
10.54644446
9.723002593
8.937547307
8.193694443
7.494417907
6.842046555
6.238262684
5.684104155
5.179969968
4.725631257
4.32025123
3.96241822
3.650196358
3.38119652
3.152666328
2.96159484
2.804826543
2.679176576
2.581535425
2.50895104
2.458681199
2.428215211
2.415266821
2.417740844
2.433676574
2.461172693
2.49829989
2.543007989
2.593035222
2.645830194
2.698501833
2.747817107
2.790263654
2.822183518
2.839965005
2.840247901
2.820070174
2.77688353
2.708401935
2.612293642
2.485748281
2.324960606
2.124668638
1.877914163
1.576116382
1.209429174
0.7673556749
0.2396714917
-0.3823235532
-1.104194476
-1.926273569
-2.841160813
-3.829487917
-4.859387076
-5.864832321
-6.802483143
-7.463874842
-7.952620865
-7.866044544
-7.717148166
-6.716982996
-6.19016923
0.6224759219
-0.1026821422
-1.222401854
-2.208038408
-3.055719026
-3.5775799
-3.707503271
-3.394655931
-2.808155449
-2.052886549
-1.234199081
-0.4196416904
0.3454998937
1.034714015
1.635303365
2.144274599
2.565238578
2.905920534
3.176012225
3.385633075
3.544323487
3.660399743
3.740594958
3.789993376
3.812234032
3.80993
3.785205512
3.740205961
3.677454381
3.59998518
3.511274103
3.415039375
3.315003993
3.214693023
3.117306171
3.025674133
2.942285808
2.869364397
2.808970481
2.763113775
2.733861123
2.72343177
2.734273049
2.769110869
2.830968569
2.923148921
3.04917739
3.212708907
3.417405544
3.666797291
3.964140804
4.312290311
4.713591038
5.169800061
5.682033818
6.250736999
6.875665821
7.555879669
8.289735904
9.074885179
9.908267523
10.78610957
11.70392382
12.65650851
13.63794911
14.64162386
15.66021076
16.68568381
17.70927252
18.72134162
19.71113237
20.66630695
21.57227622
22.41141933
23.16260959
23.80230331
24.30915945
24.67158554
24.89288453
24.98886925
24.97341751
24.84174814
24.57460374
24.1573382
23.59206526
22.89685938
22.09732645
21.21846241
20.28118795
19.30224265
18.29521962
17.27161286
16.24153998
15.21414905
14.19781105
13.20019081
12.22825894
11.28828162
10.38580808
9.525663066
8.711942899
7.94801307
7.236506764
6.579326875
5.977652921
5.431952458
4.941997071
4.506885018
4.12507459
3.794434023
3.512313428
3.275639952
3.081031748
2.92492367
2.803696331
2.713797618
2.651843449
2.614686731
2.599450464
2.603526848
2.624546413
2.660320733
2.708762942
2.767792216
2.835230444
2.908700412
2.985537001
3.062727282
3.136900749
3.204388888
3.261360928
3.30402107
3.328819909
3.332605006
3.312629245
3.266368094
3.191162644
3.083757922
2.939820919
2.753557656
2.517528806
2.222766453
1.859213947
1.416475195
0.884931894
0.257271395
-0.4695500111
-1.291746661
-2.195492817
-3.151996409
-4.115459394
-5.003075499
-5.742498433
-6.12789939
-6.190240433
-5.735935557
-5.301344138
-4.33329618
-3.690371798
3.093163966
2.318695296
1.315671015
0.2003083408
-0.739043818
-1.468744595
-1.865352906
-1.814604331
-1.437688741
-0.840961425
-0.1362400763
0.5979635355
1.306510349
1.954655513
2.523597197
3.005882161
3.402150245
3.718425854
3.96339573
4.146616458
4.277425725
4.36419466
4.413860713
4.431771898
4.421837705
4.386917159
4.329342871
4.251433271
4.15585927
4.045790506
3.924832399
3.796826547
3.665607768
3.5347972
3.407676029
3.287149125
3.175783438
3.075896565
2.989672199
2.919282986
2.86700739
2.835331349
2.827026229
2.8451966
2.893291537
2.975073969
3.094546607
3.255838595
3.463062867
3.720159119
4.030739491
4.39795219
4.824372851
5.311926426
5.861836425
6.47459434
7.149940584
7.886850584
8.683522089
9.537362262
10.44497584
11.40215662
12.4038834
13.44432224
14.51683641
15.61400259
16.72762797
17.8487548
18.96762651
20.07357101
21.15473859
22.19762984
23.18638827
24.10196094
24.92152799
25.61948131
26.17220557
26.56643778
26.80548945
26.9070663
26.88672187
26.73879914
26.44184931
25.98045912
25.35818215
24.59569689
23.72106501
22.76110389
21.73807244
20.66980611
19.57089673
18.45380239
17.32958688
16.20832268
15.09927263
14.01094983
12.95111963
11.92677873
10.94413046
10.00856546
9.124651169
8.296129426
7.52591972
6.816126661
6.168052177
5.582212512
5.058359893
4.595509609
4.191975264
3.845417945
3.552916927
3.311066844
3.116099104
2.964019437
2.850751156
2.772272946
2.72473829
2.704563298
2.708474737
2.733517926
2.777029448
2.836580055
2.909892153
2.994737302
3.088822377
3.189675726
3.294546603
3.400334458
3.503570195
3.600470461
3.687073243
3.759438828
3.81386536
3.847040417
3.856044149
3.838151566
3.790450379
3.709361293
3.590177188
3.426738914
3.211335767
2.934914274
2.587614122
2.159644252
1.642627878
1.031452759
0.3265780418
-0.4629857368
-1.315786027
-2.192690001
-3.033876973
-3.74252494
-4.224949343
-4.301546829
-3.994390625
-3.329532869
-2.694998447
-1.67984817
-1.131727871
5.665793032
4.872366989
3.928385104
2.875520517
1.8307344
0.9859603123
0.3560481316
0.1392612174
0.2744658695
0.6714269141
1.220223527
1.835196041
2.452579627
3.03003304
3.542350207
3.976835237
4.330441179
4.607092247
4.814000751
4.959677289
5.052857706
5.101651802
5.112955715
5.09220057
5.043440215
4.969694086
4.873443659
4.757134276
4.623545365
4.475944496
4.318028125
4.153719735
3.986922638
3.821311487
3.660209828
3.50656339
3.362991735
3.231890606
3.115560211
3.016339226
2.936729793
2.879504311
2.847784749
2.845086128
2.8753177
2.942736943
3.051855822
3.207305621
3.413673413
3.675327989
3.996254282
4.379911933
4.82912669
5.346014887
5.931934589
6.58745422
7.312329146
8.105479773
8.96496857
9.887976488
10.87078167
11.90874433
12.99630071
14.12696739
15.29335642
16.48719914
17.69937215
18.9199115
20.13798801
21.34179736
22.51829659
23.65271621
24.72781764
25.72299969
26.6136517
27.37204527
27.97226218
28.39934548
28.65664402
28.76387126
28.73832257
28.57338028
28.24530696
27.73795917
27.05643183
26.22404944
25.27131356
24.22686884
23.11437138
21.95285074
20.75801438
19.54340439
18.32114459
17.10233508
15.8972193
14.71522922
13.56497553
12.45421745
11.38982975
10.37777639
9.423095059
8.529894252
7.701361159
6.939777278
6.246538887
5.62218131
5.06640713
4.578119186
4.155459951
3.795861582
3.496114727
3.25246462
3.060736521
2.916483708
2.815145597
2.752202351
2.723312825
2.724422207
2.751827967
2.802199989
2.872558874
2.960219686
3.062707268
3.177648142
3.302646869
3.43515937
3.572379097
3.711154229
3.847958597
3.97893866
4.100046518
4.207242853
4.296715912
4.365033996
4.409145064
4.426171914
4.413025637
4.365928463
4.279981298
4.148896084
3.964973031
3.719420353
3.403025738
3.007139842
2.525297409
1.955434624
1.30246461
0.5815640652
-0.1773377334
-0.9246396997
-1.588139744
-2.062527003
-2.246882408
-2.010027739
-1.426660045
-0.6922020958
0.07769546048
1.033383895
1.441013604
8.1477759
7.425255373
6.540766102
5.667687516
4.602478954
3.727216264
2.918675439
2.449414296
2.325418281
2.489257888
2.843923442
3.301840605
3.793313992
4.269578247
4.699295736
5.063802404
5.355664473
5.57653173
5.731722559
5.828127579
5.873445016
5.875189255
5.83996246
5.773083407
5.678607166
5.559611181
5.418651319
5.258244551
5.081234192
4.890944968
4.691122698
4.485728252
4.278687179
4.073682707
3.874040211
3.682712404
3.502346023
3.335399275
3.18428321
3.051506864
2.939810043
2.852273721
2.792398926
2.764144263
2.771914611
2.820496934
2.914944474
3.060418321
3.262002836
3.524515909
3.852334705
4.249252077
4.718370223
5.262028944
5.881758743
6.578247083
7.35130787
8.199848468
9.12183341
10.11424743
11.17306249
12.29321418
13.46859119
14.69203965
15.955382
17.24944767
18.56410842
19.88830395
21.21002976
22.51623741
23.79257347
25.02287848
26.1884105
27.2669
28.23184081
29.0533164
29.70306418
30.16439422
30.44069844
30.55378089
30.52272487
30.33988629
29.97917937
29.42378876
28.68045064
27.77516731
26.74086509
25.60803532
24.40180833
23.14252425
21.84714133
20.53042409
19.20568794
17.8851794
16.58022576
15.30126274
14.05781026
12.85843242
11.71069812
10.62115062
9.595290595
8.637574565
7.751428298
6.939272376
6.202555014
5.541787656
4.956581853
4.445688928
4.007044674
3.637822207
3.334499678
3.092953268
2.908582517
2.776465348
2.691530256
2.648728781
2.643192726
2.670362058
2.726070678
2.806582247
2.908577138
3.029098302
3.165464758
3.315158914
3.475694489
3.644477049
3.818675312
3.995124276
4.170284202
4.340278492
4.501021882
4.648423565
4.77860948
4.888077485
4.973697085
5.032505494
5.06132774
5.056321452
5.012590655
4.923978546
4.783117061
4.581878442
4.312186404
3.967052566
3.542556056
3.040485164
2.471007967
1.8560918
1.234259454
0.664606247
0.2283015074
0.03075114897
0.1609597313
0.6823063241
1.432136636
2.182108279
2.923580394
3.685954982
3.992234337
10.61954247
10.01077894
9.213671592
8.510152681
7.568716041
6.687729663
5.759843555
5.06977504
4.687506207
4.598569459
4.728943032
4.996727044
5.330363903
5.6764081
5.997963676
6.270398507
6.481168015
6.629470422
6.718885034
6.754011432
6.740991362
6.686394439
6.596286723
6.475679167
6.328473747
6.157688251
5.965867156
5.755535976
5.529552043
5.291252437
5.044387485
4.792908533
4.540715185
4.291452803
4.048407503
3.814505592
3.592396587
3.38458694
3.193594785
3.022105622
2.873112652
2.750029713
2.656767496
2.597762785
2.577952267
2.60268755
2.677595136
2.808393777
3.00068945
3.259771997
3.590435324
3.996835095
4.482387113
5.049700006
5.700529318
6.435739064
7.255260458
8.158043702
9.142004402
10.2039699
11.33963205
12.54351322
13.80894993
15.12809553
16.49194134
17.8903527
19.31211319
20.74496268
22.17559989
23.58959632
24.97114113
26.30253003
27.56335726
28.72952397
29.77248732
30.66005772
31.36160566
31.85871713
32.15487612
32.27406976
32.23721018
32.03557164
31.64066128
31.03500954
30.22702952
29.2453897
28.12543052
26.89954944
25.59447916
24.23203464
22.83060004
21.40633342
19.97389918
18.54682817
17.13764781
15.75789183
14.41806049
13.12756998
11.89470807
10.72660246
9.629205589
8.607297459
7.664505957
6.803343219
6.025253458
5.330665206
4.719042013
4.188931236
3.738014566
3.363164743
3.060513763
2.825542483
2.653202423
2.53807302
2.474544976
2.457010644
2.480041802
2.538538697
2.627836803
2.743761072
2.882625043
3.04118111
3.216532647
3.406017006
3.607066288
3.817056225
4.033161787
4.252243887
4.470794107
4.684961625
4.890674728
5.083842581
5.260580895
5.417372653
5.551073668
5.658716977
5.737150826
5.782617418
5.790424048