/*--------------------------------*- C++ -*----------------------------------*\
| =========                 |                                                 |
| \\      /  F ield         | OpenFOAM: The Open Source CFD Toolbox           |
|  \\    /   O peration     | Version:  v1806                                 |
|   \\  /    A nd           | Web:      www.OpenFOAM.com                      |
|    \\/     M anipulation  |                                                 |
\*---------------------------------------------------------------------------*/
FoamFile
{
    version     2.0;
    format      ascii;
    class       surfaceScalarField;
    location    "90";
    object      phi;
}
// * * * * * * * * * * * * * * * * * * * * * * * * * * * * * * * * * * * * * //

dimensions      [0 3 -1 0 0 0 0];
oriented        oriented;


internalField   nonuniform List<scalar> 
128296
(
-0.0002234765898
-0.0009378763442
-0.0002169328969
-0.0009763149772
-0.0002077726614
-0.0009900275024
-0.0001977648376
-0.001007348037
-0.0001869592256
-0.001018247365
-0.0001759482773
-0.001025966306
-0.0001649012246
-0.001030975737
-0.0001539796314
-0.001034344392
-0.000143258665
-0.001036363543
-0.0001328120224
-0.001037408848
-0.000122684532
-0.00103776077
-0.0001129102067
-0.001037652926
-0.0001035116268
-0.001037256852
-9.443059888e-05
-0.00103664291
-8.561701705e-05
-0.001035987662
-7.704930484e-05
-0.001035318713
-6.870702342e-05
-0.00103464689
-6.057075209e-05
-0.00103395964
-5.262352873e-05
-0.001033227683
-4.48513688e-05
-0.001032412853
-3.724296953e-05
-0.001031473932
-2.97889814e-05
-0.001030370533
-2.248128608e-05
-0.001029066497
-1.531261437e-05
-0.001027531861
-8.276588326e-06
-0.001025743659
-1.368046818e-06
-0.001023687379
5.416612103e-06
-0.001021356577
1.207955796e-05
-0.001018753338
1.86216355e-05
-0.001015887482
2.504216983e-05
-0.001012774229
3.13392676e-05
-0.0010094329
3.75103824e-05
-0.001005884265
4.355265725e-05
-0.00100214908
4.946306728e-05
-0.0009982464596
5.523841668e-05
-0.000994192267
6.087523913e-05
-0.0009899989424
6.636963871e-05
-0.0009856749189
7.171711334e-05
-0.0009812248612
7.691238985e-05
-0.0009766500338
8.194928966e-05
-0.0009719488595
8.682063551e-05
-0.0009671175348
9.151820281e-05
-0.0009621507285
9.603271398e-05
-0.0009570421668
0.0001003538723
-0.0009517852289
0.0001044704296
-0.0009463734479
0.0001083702814
-0.0009408009398
0.0001120405818
-0.0009350627235
0.0001154678703
-0.0009291550168
0.0001186381963
-0.0009230753561
0.0001215372212
-0.0009168226924
0.0001241502446
-0.0009103973757
0.0001264619798
-0.0009038010607
0.0001284553648
-0.0008970364082
0.0001301065189
-0.0008901062462
0.0001313931899
-0.000883005245
0.0001323115855
-0.0008757414933
0.0001328593966
-0.0008683340895
0.0001330255591
-0.0008607903429
0.0001327943193
-0.0008531186994
0.0001321477184
-0.000845331391
0.0001310638939
-0.0008374444185
0.0001295160466
-0.0008294811409
0.0001274768282
-0.0008214956688
0.0001249682591
-0.0008135303413
0.0001219273621
-0.0008056080836
0.0001183026519
-0.0007977714886
0.0001140900265
-0.0007901065774
0.0001092784182
-0.0007827152575
0.0001038554694
-0.000775701512
9.781536013e-05
-0.00076916199
9.116145848e-05
-0.0007631661847
8.390491134e-05
-0.0007577263994
7.605811272e-05
-0.0007527679124
6.762248556e-05
-0.000748123943
5.857046898e-05
-0.0007435874697
4.885610955e-05
-0.0007390604773
3.855210048e-05
-0.0007346465087
2.770140662e-05
-0.0007306886642
1.641313455e-05
-0.0007276482193
4.855481746e-06
-0.0007259079805
-6.772229627e-06
-0.0007255824953
-1.827325143e-05
-0.0007264540961
-2.948029807e-05
-0.0007280713719
-4.026729533e-05
-0.0007299816821
-5.054363168e-05
-0.0007319674897
-6.024052388e-05
-0.0007341383845
-6.930313557e-05
-0.0007368250129
-7.762297433e-05
-0.0007403362934
-8.52049132e-05
-0.0007448761127
-9.20448127e-05
-0.0007504368723
-9.815622932e-05
-0.0007568984132
-0.0001035634668
-0.0007640821244
-0.0001082970904
-0.0007717993272
-0.0001123873821
-0.00077987797
-0.0001158562489
-0.0007881707175
-0.0001187325013
-0.0007965567351
-0.0001211182652
-0.0008049703728
-0.000122984919
-0.0008133577534
-0.0001243628543
-0.0008217043752
-0.0001252799927
-0.0008299427225
-0.0001257604859
-0.0008380467403
-0.0001258226353
-0.0008460018211
-0.0001254805537
-0.0008537978232
-0.0001247414862
-0.0008614281065
-0.0001236086985
-0.0008688810414
-0.0001221008213
-0.0008761422048
-0.0001202437769
-0.0008832194913
-0.0001180554703
-0.0008901116773
-0.0001155518271
-0.0008968171553
-0.0001127482092
-0.0009033348697
-0.0001096597129
-0.0009096646416
-0.000106301176
-0.0009158073205
-0.0001026870913
-0.0009217648911
-9.883148304e-05
-0.0009275404918
-9.474777075e-05
-0.0009331384164
-9.044863538e-05
-0.0009385639446
-8.594589719e-05
-0.0009438231498
-8.125041401e-05
-0.0009489225992
-7.637200618e-05
-0.0009538689844
-7.131941353e-05
-0.0009586686897
-6.610028935e-05
-0.0009633272762
-6.072123485e-05
-0.0009678489864
-5.518787672e-05
-0.0009722361342
-4.950498624e-05
-0.0009764885621
-4.367663422e-05
-0.0009806031174
-3.770636827e-05
-0.0009845732553
-3.159739078e-05
-0.0009883886883
-2.535270244e-05
-0.0009920357552
-1.897517729e-05
-0.00099549729
-1.246750327e-05
-0.0009987538481
-5.831902171e-06
-0.001001784927
9.301807893e-07
-0.001004570044
7.818169654e-06
-0.00100709125
1.483252664e-05
-0.001009334512
2.197515123e-05
-0.001011291706
2.924950757e-05
-0.001012961615
3.666049777e-05
-0.001014350001
4.421418694e-05
-0.001015470337
5.191752407e-05
-0.001016342686
5.977826891e-05
-0.001016993283
6.780523103e-05
-0.001017453223
7.600872647e-05
-0.001017756123
8.440096977e-05
-0.001017935792
9.299602226e-05
-0.001018022429
0.0001018091191
-0.001018037239
0.0001108556062
-0.001017986866
0.00012016828
-0.001017867948
0.0001298014596
-0.001017579535
0.0001397615503
-0.001017058553
0.0001500237794
-0.001016225157
0.0001605545888
-0.001014930566
0.0001713078519
-0.001012988094
0.0001822137695
-0.001010143837
0.0001932047756
-0.001006173982
0.0002040810421
-0.001000492856
0.0002145894643
-0.0009924652701
0.0002242094511
-0.000979022071
0.0002324445986
-0.0009678938764
-0.0009391690555
-0.0002185308897
-0.0009395006828
-0.0002120662684
-0.0009827796096
-0.0002034729061
-0.0009986208748
-0.0001941522342
-0.001016668719
-0.0001840778156
-0.001028321806
-0.0001736815726
-0.001036362553
-0.0001630905012
-0.001041566816
-0.0001524754058
-0.00104495949
-0.0001419593967
-0.001046879561
-0.0001316407967
-0.001047727458
-0.0001215841449
-0.00104781743
-0.0001118269462
-0.001047410132
-0.0001023791893
-0.001046704615
-9.318324012e-05
-0.001045838862
-8.425227664e-05
-0.001044918629
-7.557105371e-05
-0.001043999937
-6.711881301e-05
-0.001043099128
-5.887404943e-05
-0.001042204398
-5.081712427e-05
-0.001041284602
-4.293166857e-05
-0.001040298302
-3.520506382e-05
-0.001039200528
-2.762829215e-05
-0.001037947293
-2.019538202e-05
-0.001036499394
-1.290267118e-05
-0.001034824556
-5.748084185e-06
-0.001032898227
1.269461317e-06
-0.001030704901
8.15048215e-06
-0.001028237571
1.489523304e-05
-0.001025498058
2.150373305e-05
-0.001022495947
2.797575981e-05
-0.001019246216
3.431086837e-05
-0.001015767966
4.050839718e-05
-0.001012081747
4.656743621e-05
-0.001008208067
5.248674566e-05
-0.001004165713
5.826462592e-05
-0.0009999700869
6.389875912e-05
-0.0009956330107
6.938603919e-05
-0.0009911621295
7.472241705e-05
-0.0009865611648
7.990277869e-05
-0.0009818303164
8.492086748e-05
-0.0009769668645
8.976925405e-05
-0.0009719658327
9.443935195e-05
-0.0009668207328
9.892147286e-05
-0.000961524189
0.0001032049137
-0.0009560685659
0.0001072780669
-0.0009504464919
0.0001111285446
-0.000944651303
0.0001147433088
-0.0009386773678
0.000118108799
-0.0009325203813
0.0001212110478
-0.0009261774735
0.0001240357759
-0.0009196472832
0.0001265684501
-0.0009129299065
0.0001287942921
-0.000906026753
0.0001306982973
-0.0008989402572
0.0001322656776
-0.0008916734636
0.0001334896981
-0.0008842290959
0.0001343614004
-0.000876613019
0.0001348608811
-0.000868833386
0.0001349689789
-0.000860898249
0.0001346679206
-0.0008528174416
0.0001339407657
-0.0008446040288
0.0001327721246
-0.0008362755626
0.0001311500076
-0.0008278588012
0.0001290516367
-0.0008193970671
0.0001264525032
-0.0008109309664
0.0001232819129
-0.0008024372371
0.0001195175722
-0.0007940068832
0.0001151637573
-0.0007857524934
0.0001102085479
-0.0007777597737
0.0001046380627
-0.0007701307471
9.844537621e-05
-0.0007629690192
9.163330169e-05
-0.0007563538221
8.421350627e-05
-0.0007503063132
7.620135246e-05
-0.0007447554661
6.760798432e-05
-0.0007395302819
5.84385358e-05
-0.000734417729
4.86747918e-05
-0.0007292964433
3.832439351e-05
-0.0007242958229
2.741847333e-05
-0.0007197824569
1.606562809e-05
-0.0007162950876
4.434327379e-06
-0.0007142763938
-7.274531817e-06
-0.0007138733504
-1.885951334e-05
-0.0007148688286
-3.014556024e-05
-0.0007167850385
-4.099825663e-05
-0.0007191286987
-5.132155114e-05
-0.0007216439079
-6.104741645e-05
-0.0007244122322
-7.013672516e-05
-0.0007277354183
-7.852429752e-05
-0.0007319484364
-8.618627261e-05
-0.0007372138521
-9.311120509e-05
-0.000743511655
-9.930925269e-05
-0.000750700083
-0.0001048057007
-0.0007585853973
-0.0001096328005
-0.000766971953
-0.0001138215633
-0.0007756889382
-0.0001173897818
-0.0007846022362
-0.000120344895
-0.0007936013652
-0.0001227732993
-0.0008025417217
-0.0001246946293
-0.0008114361916
-0.0001261437402
-0.0008202550401
-0.0001271335451
-0.0008289527008
-0.0001276794584
-0.0008375006179
-0.0001277992568
-0.0008458818213
-0.000127511744
-0.0008540851424
-0.0001268368652
-0.0008621027991
-0.0001257893462
-0.0008699283816
-0.0001243748975
-0.0008775564819
-0.0001226083631
-0.0008849858612
-0.0001205050942
-0.0008922147886
-0.0001180803081
-0.0008992417906
-0.0001153490657
-0.0009060659676
-0.0001123262859
-0.0009126872828
-0.0001090267067
-0.0009191067668
-0.0001054648032
-0.0009253266673
-0.0001016546782
-0.0009313504956
-9.760993408e-05
-0.0009371830453
-9.3343537e-05
-0.0009428302322
-8.886768079e-05
-0.0009482989016
-8.419365815e-05
-0.0009535965222
-7.933174745e-05
-0.0009587308003
-7.429112248e-05
-0.0009637092249
-6.907979263e-05
-0.0009685385215
-6.370457998e-05
-0.0009732241195
-5.817113871e-05
-0.0009777695007
-5.248401865e-05
-0.0009821756119
-4.664677109e-05
-0.0009864402993
-4.066208871e-05
-0.0009905578766
-3.453196709e-05
-0.0009945187535
-2.825786743e-05
-0.000998309803
-2.184086675e-05
-0.001001914243
-1.52817716e-05
-0.0010053129
-8.581185454e-06
-0.001008485474
-1.739538831e-06
-0.001011411655
5.242884782e-06
-0.001014073643
1.23659427e-05
-0.001016457542
1.9629819e-05
-0.001018555558
2.703521175e-05
-0.001020366988
3.458357765e-05
-0.001021898349
4.2277488e-05
-0.001023164234
5.012111269e-05
-0.0010241863
5.812079223e-05
-0.001024992954
6.628557062e-05
-0.001025617996
7.462750537e-05
-0.001026098054
8.316154948e-05
-0.001026469835
9.190474751e-05
-0.001026765627
0.0001008743399
-0.001027006833
0.0001100848748
-0.001027197405
0.0001195319905
-0.001027315069
0.0001292550134
-0.001027302564
0.0001392743748
-0.001027077922
0.0001495713223
-0.001026522113
0.000160107459
-0.001025466712
0.0001708205628
-0.001023701209
0.0001816236543
-0.001020946941
0.0001924007272
-0.001016951068
0.0002029950515
-0.001011087194
0.0002131698518
-0.001002640085
0.0002226319514
-0.0009884841859
0.0002315073906
-0.0009767693299
-0.0009448113363
-0.0001950943798
-0.000936389789
-0.0001926118308
-0.0009852621962
-0.0001866878582
-0.001004544877
-0.0001796387336
-0.001023717859
-0.0001715341937
-0.001036426377
-0.0001626334812
-0.00104526329
-0.000153185331
-0.00105101499
-0.0001434566945
-0.001054688145
-0.0001336310382
-0.001056705231
-0.0001238453166
-0.001057513192
-0.0001141974626
-0.001057465295
-0.0001047517234
-0.001056855879
-9.55443475e-05
-0.001055912
-8.658624866e-05
-0.001054796965
-7.787396597e-05
-0.001053630914
-6.939521729e-05
-0.001052478688
-6.113355191e-05
-0.001051360793
-5.307118286e-05
-0.001050266761
-4.519066781e-05
-0.001049165106
-3.747606711e-05
-0.001048012888
-2.991361868e-05
-0.001046762957
-2.24920648e-05
-0.001045368823
-1.520275874e-05
-0.001043788672
-8.039612299e-06
-0.001041987669
-9.988899259e-07
-0.00103993891
5.921169255e-06
-0.001037624916
1.272090136e-05
-0.001035037252
1.939971028e-05
-0.00103217681
2.595631685e-05
-0.001029052489
3.238906834e-05
-0.001025678896
3.869622003e-05
-0.001022075038
4.487603555e-05
-0.001018261475
5.092676208e-05
-0.001014258698
5.68465084e-05
-0.001010085356
6.263305422e-05
-0.001005756521
6.828363108e-05
-0.001001283468
7.379470344e-05
-0.0009966730735
7.916177992e-05
-0.0009919281044
8.437927129e-05
-0.0009870476621
8.944040338e-05
-0.0009820278419
9.433718402e-05
-0.0009768624496
9.90604186e-05
-0.0009715437944
0.0001035997649
-0.0009660633527
0.0001079438173
-0.000960412426
0.0001120802112
-0.0009545826836
0.0001159957392
-0.0009485666184
0.000119676472
-0.0009423578774
0.0001231078803
-0.0009359515554
0.0001262749521
-0.0009293442999
0.0001291623035
-0.0009225343775
0.0001317542776
-0.0009155216115
0.0001340350349
-0.0009083072288
0.0001359886622
-0.0009008935905
0.0001375994319
-0.000893283926
0.0001388527669
-0.00088548211
0.0001397336076
-0.0008774935246
0.0001402259176
-0.0008693253465
0.0001403138748
-0.0008609858422
0.0001399815903
-0.0008524847788
0.0001392125157
-0.0008438345614
0.0001379891233
-0.0008350517627
0.0001362894443
-0.0008261586999
0.0001340770808
-0.0008171842644
0.0001313101437
-0.0008081635719
0.0001280077049
-0.0007991343282
0.0001241608106
-0.0007901595076
0.0001197327184
-0.000781323908
0.0001146964919
-0.0007727230426
0.0001090296835
-0.0007644634236
0.0001027142448
-0.000756653056
9.573981576e-05
-0.0007493788604
8.810525411e-05
-0.0007426712121
7.981486872e-05
-0.0007364645361
7.086837373e-05
-0.000730583239
6.125112979e-05
-0.0007247999356
5.093991791e-05
-0.0007189846814
3.991639434e-05
-0.0007132717489
2.824173437e-05
-0.0007081072474
1.604758028e-05
-0.0007041003855
3.532599226e-06
-0.000701760866
-9.064301757e-06
-0.0007012759029
-2.150036716e-05
-0.0007024322159
-3.356188016e-05
-0.0007047229766
-4.508427973e-05
-0.0007076057486
-5.595168751e-05
-0.0007107759487
-6.608062134e-05
-0.0007142827474
-7.540435923e-05
-0.0007184111305
-8.390211388e-05
-0.0007234501337
-9.158395562e-05
-0.000729531467
-9.847967307e-05
-0.000736615401
-0.0001046314705
-0.0007445477576
-0.000110085394
-0.0007531309557
-0.0001148852062
-0.0007621716338
-0.0001190703226
-0.0007715033267
-0.000122680069
-0.0007809920074
-0.0001257496706
-0.0007905312974
-0.0001282530897
-0.0008000378541
-0.0001302218528
-0.000809466993
-0.0001316963157
-0.0008187801557
-0.0001327009588
-0.0008279476505
-0.0001332535904
-0.0008369475935
-0.0001333707699
-0.0008457642635
-0.0001330685806
-0.0008543869681
-0.0001323630219
-0.0008628080087
-0.0001312696071
-0.0008710214611
-0.0001298027142
-0.0008790230528
-0.0001279779765
-0.0008868102901
-0.0001258113268
-0.0008943811425
-0.0001233187835
-0.0009017340511
-0.0001205163614
-0.0009088681196
-0.0001174199916
-0.0009157833948
-0.0001140454237
-0.0009224810885
-0.0001104081104
-0.0009289637457
-0.0001065230808
-0.0009352353011
-0.0001024048072
-0.0009413011059
-9.806706963e-05
-0.0009471677676
-9.352282399e-05
-0.0009528429556
-8.878407746e-05
-0.000958335087
-8.386177817e-05
-0.0009636529273
-7.876572521e-05
-0.0009688051149
-7.350450695e-05
-0.0009737995861
-6.808547519e-05
-0.000978643007
-6.251476299e-05
-0.0009833400778
-5.679735104e-05
-0.0009878928976
-5.093718371e-05
-0.000992300349
-4.493733017e-05
-0.0009965576209
-3.880017929e-05
-0.001000655804
-3.252764609e-05
-0.001004582244
-2.61213689e-05
-0.001008320436
-1.958286159e-05
-0.00101185133
-1.291358967e-05
-0.001015154677
-6.114921607e-06
-0.001018210261
8.120024681e-07
-0.001021000512
7.866403916e-06
-0.001023511896
1.504822723e-05
-0.00102573734
2.235865583e-05
-0.001027677381
2.980058055e-05
-0.001029340244
3.737899103e-05
-0.00103074262
4.510124038e-05
-0.00103190853
5.297715557e-05
-0.001032868855
6.101897763e-05
-0.001033659808
6.924111505e-05
-0.001034320186
7.76596746e-05
-0.001034888392
8.629171217e-05
-0.001035397666
9.515425351e-05
-0.001035869379
0.0001042629977
-0.001036306156
0.0001136295299
-0.001036681611
0.0001232567718
-0.001036929818
0.0001331318343
-0.001036952999
0.0001432215657
-0.001036611861
0.0001534701145
-0.00103571528
0.0001637965619
-0.001034027677
0.0001740882456
-0.001031238647
0.0001842112101
-0.001027074057
0.0001938983447
-0.001020774356
0.0002030223047
-0.001011764074
0.000211478952
-0.000996940866
0.0002189251231
-0.0009842155303
-0.0009483851809
-0.0001733763024
-0.0009289881811
-0.0001753815254
-0.0009832570226
-0.000172339081
-0.001007587369
-0.0001674112422
-0.00102864573
-0.0001608993629
-0.001042938292
-0.0001532891078
-0.001052873577
-0.0001448726372
-0.001059431489
-0.000135954991
-0.001063605818
-0.0001267571497
-0.001065903098
-0.0001174556221
-0.00106681474
-0.0001081815462
-0.00106673939
-9.902697107e-05
-0.001066010468
-9.004750859e-05
-0.001064891474
-8.126636662e-05
-0.001063578115
-7.269402178e-05
-0.001062203262
-6.432933879e-05
-0.001060843371
-5.616274378e-05
-0.001059527383
-4.818057426e-05
-0.001058248921
-4.036836668e-05
-0.001056977298
-3.271279734e-05
-0.001055668435
-2.520256212e-05
-0.001054273164
-1.782857825e-05
-0.001052742771
-1.058385791e-05
-0.001051033348
-3.463290613e-06
-0.001049108184
3.536579586e-06
-0.00104693872
1.04178258e-05
-0.001044506093
1.718150327e-05
-0.001041800851
2.382777641e-05
-0.001038822995
3.035606419e-05
-0.001035580679
3.676533366e-05
-0.001032088057
4.305433716e-05
-0.001028363922
4.922171318e-05
-0.00102442872
5.526596447e-05
-0.001020302807
6.118533134e-05
-0.001016004568
6.69775896e-05
-0.001011548612
7.26398179e-05
-0.001006945515
7.816816779e-05
-0.00100220123
8.35576694e-05
-0.0009973173987
8.880209036e-05
-0.0009922918619
9.389385546e-05
-0.0009871193718
9.882402523e-05
-0.0009817923696
0.0001035823269
-0.0009763018314
0.0001081572275
-0.0009706379733
0.0001125360395
-0.0009647909422
0.0001167050502
-0.0009587513821
0.000120649667
-0.000952510906
0.0001243545734
-0.0009460624371
0.0001278038921
-0.0009394005092
0.0001309813501
-0.0009325213744
0.0001338704448
-0.0009254230693
0.0001364546068
-0.0009181053508
0.0001387173653
-0.0009105695442
0.0001406425326
-0.0009028182936
0.0001422144471
-0.0008948553549
0.0001434182561
-0.0008866854117
0.0001442395236
-0.0008783142625
0.0001446635461
-0.0008697488171
0.0001446752613
-0.0008609969831
0.0001442591102
-0.0008520680311
0.0001433986023
-0.0008429734347
0.0001420755805
-0.0008337281002
0.0001402700903
-0.000824352547
0.0001379611081
-0.0008148745979
0.0001351244965
-0.0008053262556
0.0001317382801
-0.0007957473868
0.0001277782672
-0.0007861987498
0.0001232157212
-0.0007767605974
0.0001180226683
-0.0007675292063
0.0001121746083
-0.0007586145622
0.0001056532967
-0.0007501309261
9.845007579e-05
-0.0007421748056
9.056699416e-05
-0.0007347872826
8.201146162e-05
-0.000727908144
7.278258907e-05
-0.0007213534977
6.285677847e-05
-0.0007148732499
5.219237029e-05
-0.0007083193945
4.076721965e-05
-0.0007018457188
2.862435576e-05
-0.0006959635052
1.590305475e-05
-0.0006913782081
2.832303202e-06
-0.0006886892395
-1.030678081e-05
-0.0006881359439
-2.323173551e-05
-0.0006895063844
-3.570409846e-05
-0.0006922497341
-4.755497676e-05
-0.0006957539884
-5.86814432e-05
-0.0006996485998
-6.90234505e-05
-0.0007039398598
-7.854526653e-05
-0.0007088884399
-8.723079981e-05
-0.0007147637351
-9.508340535e-05
-0.0007216780085
-0.0001021297421
-0.000729568226
-0.000108411444
-0.0007382652341
-0.0001139754296
-0.0007475661664
-0.0001188673269
-0.0007572789518
-0.000123128774
-0.000767241115
-0.0001267968248
-0.0007773232129
-0.0001299022665
-0.0007874251328
-0.0001324673483
-0.0007974720704
-0.0001345179163
-0.0008074157449
-0.0001360742156
-0.0008172231984
-0.0001371554837
-0.0008268657468
-0.0001377794911
-0.0008363229731
-0.0001379622424
-0.0008455809216
-0.0001377188235
-0.0008546298193
-0.000137063813
-0.000863462474
-0.0001360114265
-0.0008720733248
-0.0001345759648
-0.0008804580137
-0.0001327725425
-0.0008886132331
-0.0001306169219
-0.000896536305
-0.0001281253284
-0.0009042252073
-0.0001253143063
-0.000911678725
-0.000122200579
-0.0009188967255
-0.0001188008965
-0.0009258803941
-0.0001151318688
-0.0009326324151
-0.00011120979
-0.0009391570395
-0.0001070504594
-0.0009454601136
-0.0001026690043
-0.0009515489169
-9.807971148e-05
-0.0009574319595
-9.32958709e-05
-0.0009631186548
-8.832963867e-05
-0.0009686189021
-8.319192429e-05
-0.0009739425866
-7.789230962e-05
-0.0009790989728
-7.243900643e-05
-0.0009840960966
-6.683886062e-05
-0.000988940024
-6.109740833e-05
-0.000993634164
-5.521898635e-05
-0.0009981785983
-4.920689258e-05
-0.001002569555
-4.306358509e-05
-0.001006798964
-3.679089518e-05
-0.001010854799
-3.039022977e-05
-0.001014720978
-2.386272208e-05
-0.001018378727
-1.720929589e-05
-0.001021808003
-1.043060984e-05
-0.001024988858
-3.526879856e-06
-0.001027904163
3.502259795e-06
-0.001030540966
1.065791919e-05
-0.00103289294
1.794234266e-05
-0.001034961753
2.535922529e-05
-0.001036757084
3.29139335e-05
-0.001038297293
4.061366996e-05
-0.001039608239
4.846761693e-05
-0.001040722782
5.648703661e-05
-0.001041679214
6.468521906e-05
-0.00104251836
7.307707186e-05
-0.001043280243
8.167806127e-05
-0.001043998659
9.050222428e-05
-0.00104469355
9.95592166e-05
-0.001045363161
0.0001088519807
-0.001045974392
0.0001183778247
-0.001046455683
0.000128116026
-0.001046691224
0.0001380205832
-0.001046516446
0.0001480201185
-0.001045714846
0.0001580175741
-0.001044025166
0.0001678899301
-0.001041111041
0.000177493036
-0.001036677204
0.0001866451698
-0.001029926536
0.0001951047396
-0.001020223689
0.0002029057756
-0.001004741953
0.0002091566316
-0.0009904664337
-0.0009498425353
-0.000133249752
-0.0009152450678
-0.0001442949552
-0.0009722118896
-0.0001475302019
-0.001004352178
-0.0001472016412
-0.001028974341
-0.0001441061829
-0.0010460338
-0.0001391169365
-0.001057862871
-0.0001326675437
-0.001065880924
-0.0001252405291
-0.001071032867
-0.0001171754815
-0.00107396818
-0.0001087393864
-0.001075250863
-0.0001001310094
-0.001075347791
-9.149383279e-05
-0.001074647665
-8.292489405e-05
-0.001073460428
-7.448397412e-05
-0.001072019045
-6.620206044e-05
-0.001070485179
-5.809008161e-05
-0.001068955349
-5.014640343e-05
-0.001067471054
-4.23626231e-05
-0.001066032687
-3.472775566e-05
-0.001064612144
-2.72309135e-05
-0.001063165248
-1.98627134e-05
-0.001061641325
-1.261576452e-05
-0.001059989672
-5.484626786e-06
-0.001058164427
1.534438862e-06
-0.001056127181
8.443793161e-06
-0.001053847994
1.524478408e-05
-0.001051306992
2.193794655e-05
-0.00104849391
2.852305392e-05
-0.001045407986
3.499931071e-05
-0.001042056806
4.136559548e-05
-0.001038454198
4.762062831e-05
-0.001034618796
5.376302462e-05
-0.001030570943
5.979123625e-05
-0.001026330829
6.57033916e-05
-0.001021916518
7.149706393e-05
-0.001017342062
7.716901537e-05
-0.001012617228
8.271495152e-05
-0.00100774691
8.812932088e-05
-0.001002731494
9.34051759e-05
-0.0009975674243
9.853410198e-05
-0.0009922479862
0.000103506211
-0.0009867641473
0.0001083101909
-0.0009811054598
0.0001129334003
-0.0009752608104
0.0001173619977
-0.0009692191456
0.0001215810955
-0.0009629700634
0.000125574931
-0.000956504302
0.0001293270496
-0.0009498140921
0.0001328204927
-0.0009428934639
0.0001360379883
-0.0009357383559
0.0001389621384
-0.0009283466788
0.0001415755998
-0.0009207182443
0.0001438612555
-0.0009128546041
0.0001458023753
-0.0009047587892
0.0001473827562
-0.0008964350826
0.000148586778
-0.000887888751
0.00014939917
-0.0008791259423
0.0001498046977
-0.0008701536029
0.0001497880023
-0.0008609795162
0.0001493333885
-0.000851612616
0.0001484245368
-0.0008420637519
0.0001470440605
-0.0008323467636
0.0001451721968
-0.0008224797941
0.0001427849371
-0.0008124864205
0.0001398579323
-0.000802398305
0.0001363698223
-0.0007922583033
0.0001322965924
-0.0007821245191
0.0001276098912
-0.0007720728687
0.0001222793679
-0.0007621976298
0.0001162755558
-0.000752609672
0.0001095736075
-0.0007434278759
0.000102157461
-0.0007347575351
9.402182452e-05
-0.0007266505021
8.516738866e-05
-0.0007190525464
7.55866166e-05
-0.00071177155
6.524786051e-05
-0.0007045333081
5.409827906e-05
-0.0006971686216
4.210177758e-05
-0.000689848024
2.930157245e-05
-0.0006831621079
1.585555021e-05
-0.0006779309959
2.026866807e-06
-0.0006748593679
-1.186093437e-05
-0.0006742469544
-2.548405293e-05
-0.0006758820751
-3.857236416e-05
-0.0006791602285
-5.093996137e-05
-0.000683385194
-6.248105224e-05
-0.000688106312
-7.314209802e-05
-0.0006932776216
-8.28985256e-05
-0.0006991308294
-9.175027272e-05
-0.0007059108195
-9.972296263e-05
-0.0007137041685
-0.0001068608355
-0.0007224292246
-0.000113217564
-0.0007319074008
-0.0001188481433
-0.0007419345078
-0.0001238032973
-0.0007523227449
-0.0001281267784
-0.0007629166086
-0.0001318547065
-0.0007735942876
-0.0001350155546
-0.0007842633162
-0.000137631237
-0.0007948554484
-0.0001397236623
-0.0008053224094
-0.0001413162009
-0.0008156297795
-0.0001424278755
-0.0008257532216
-0.0001430750883
-0.00083567494
-0.0001432731402
-0.0008453820795
-0.000143036812
-0.0008548653877
-0.0001423806641
-0.0008641178925
-0.000141319251
-0.0008731340386
-0.0001398673946
-0.0008819092008
-0.0001380405194
-0.0008904394683
-0.00013585469
-0.0008987215232
-0.0001333265383
-0.0009067527763
-0.0001304731506
-0.000914531558
-0.0001273119289
-0.0009220574198
-0.000123860429
-0.0009293313933
-0.0001201361788
-0.0009363561904
-0.0001161564839
-0.0009431362842
-0.0001119382263
-0.0009496779447
-0.000107497663
-0.0009559890768
-0.0001028502305
-0.0009620790111
-9.801036291e-05
-0.0009679581635
-9.299132838e-05
-0.0009736375987
-8.780509273e-05
-0.0009791285045
-8.246221615e-05
-0.000984441551
-7.697179107e-05
-0.0009895862424
-7.134142949e-05
-0.0009945701251
-6.557730627e-05
-0.0009993980449
-5.96842617e-05
-0.001004071418
-5.366596036e-05
-0.001008587649
-4.752509522e-05
-0.001012939638
-4.126361182e-05
-0.001017116107
-3.488292608e-05
-0.001021101505
-2.838409309e-05
-0.001024877416
-2.176789308e-05
-0.001028424073
-1.503480866e-05
-0.001031721827
-8.184874422e-06
-0.001034753994
-1.21749941e-06
-0.001037508251
5.868630775e-06
-0.001039978992
1.30757658e-05
-0.001042168822
2.040742453e-05
-0.001044088688
2.786865376e-05
-0.001045758478
3.546624733e-05
-0.001047205797
4.320896189e-05
-0.00104846547
5.110764432e-05
-0.001049577879
5.917508157e-05
-0.001050585788
6.742530791e-05
-0.001051530467
7.587207786e-05
-0.001052445434
8.452630467e-05
-0.001053347788
9.339242028e-05
-0.001054229294
0.0001024635668
-0.001055045561
0.0001117155372
-0.001055707681
0.0001211011836
-0.001056076903
0.0001305454468
-0.001055960745
0.000139941955
-0.001055111395
0.0001491500923
-0.001053233348
0.0001579957375
-0.001049956736
0.0001662612488
-0.001044942767
0.0001737257392
-0.001037391086
0.00018012169
-0.001026619701
0.0001854588183
-0.001010079147
0.0001878632236
-0.0009928709042
-0.0009471194837
-8.728596887e-05
-0.0008978942711
-0.0001076746355
-0.0009518233198
-0.000118375774
-0.0009936511138
-0.0001234700261
-0.001023880155
-0.0001243253669
-0.00104517852
-0.0001223960338
-0.001059792258
-0.0001183031021
-0.001069973907
-0.0001126936561
-0.001076642357
-0.0001060301588
-0.001080631717
-9.867898062e-05
-0.001082602077
-9.091693645e-05
-0.001083109864
-8.294852539e-05
-0.001082616103
-7.491736073e-05
-0.001081491612
-6.691768428e-05
-0.001080018735
-5.900642681e-05
-0.001078396442
-5.121315227e-05
-0.001076748621
-4.354876295e-05
-0.001075135433
-3.601297618e-05
-0.001073568455
-2.860006206e-05
-0.001072025031
-2.130269413e-05
-0.001070462579
-1.411411719e-05
-0.001068829854
-7.029053007e-06
-0.001067074677
-4.383595705e-08
-0.001065149573
6.843820086e-06
-0.001063014753
1.363519372e-05
-0.00106063927
2.033085981e-05
-0.001058002546
2.693073507e-05
-0.001055093657
3.34341636e-05
-0.001051911271
3.984011126e-05
-0.001048462594
4.614732875e-05
-0.001044761238
5.235445323e-05
-0.001040825725
5.846001195e-05
-0.001036676288
6.446232233e-05
-0.001032332907
7.035929677e-05
-0.001027813239
7.614818201e-05
-0.001023130674
8.182528225e-05
-0.001018294034
8.738570234e-05
-0.001013307013
9.282314477e-05
-0.001008168597
9.812977622e-05
-0.001002873694
0.0001032961679
-0.0009974139922
0.0001083113048
-0.000991778874
0.000113162653
-0.0009859563724
0.0001178362739
-0.0009799339696
0.000122316974
-0.0009736993569
0.0001265884802
-0.0009672410526
0.0001306336334
-0.000960548909
0.0001344345943
-0.0009536144765
0.0001379730566
-0.0009464313182
0.0001412304615
-0.0009389951205
0.0001441882104
-0.000931303754
0.000146827867
-0.0009233571929
0.0001491313443
-0.0009151573382
0.0001510810631
-0.0009067077291
0.000152660065
-0.0008980132693
0.0001538520374
-0.0008890798715
0.0001546412046
-0.0008799142206
0.0001550121261
-0.0008705235985
0.0001549494452
-0.0008609158722
0.0001544375612
-0.0008510997324
0.000153460194
-0.0008410853486
0.0001519998807
-0.0008308853777
0.0001500376333
-0.0008205164381
0.0001475531364
-0.0008100007794
0.0001445240838
-0.000799368073
0.000140925558
-0.0007886585635
0.0001367295204
-0.0007779272333
0.00013190475
-0.0007672468165
0.0001264180772
-0.0007567096423
0.000120236706
-0.0007464269542
0.0001133318197
-0.0007365216123
0.0001056829338
-0.0007271072428
9.728029925e-05
-0.0007182464348
8.812017581e-05
-0.0007098909672
7.818932935e-05
-0.0007018392289
6.744673938e-05
-0.0006937892298
5.582719515e-05
-0.0006855475808
4.328637738e-05
-0.0006773057064
2.986746562e-05
-0.0006697416969
1.57441574e-05
-0.0006638061908
1.211470784e-06
-0.0006603251861
-1.336618516e-05
-0.0006596678024
-2.762502692e-05
-0.0006616217338
-4.126516018e-05
-0.0006655185912
-5.408747722e-05
-0.00067056137
-6.598985093e-05
-0.0006762024326
-7.693400702e-05
-0.0006823319669
-8.691513163e-05
-0.00068914822
-9.595038332e-05
-0.0006968741029
-0.0001040765711
-0.0007055765407
-0.0001113461895
-0.0007151581949
-0.0001178191412
-0.0007254330688
-0.0001235543532
-0.0007361979484
-0.0001286047065
-0.0007472710782
-0.0001330152401