/*--------------------------------*- C++ -*----------------------------------*\
| =========                 |                                                 |
| \\      /  F ield         | OpenFOAM: The Open Source CFD Toolbox           |
|  \\    /   O peration     | Version:  v1806                                 |
|   \\  /    A nd           | Web:      www.OpenFOAM.com                      |
|    \\/     M anipulation  |                                                 |
\*---------------------------------------------------------------------------*/
FoamFile
{
    version     2.0;
    format      ascii;
    class       volVectorField;
    location    "0";
    object      U;
}
// * * * * * * * * * * * * * * * * * * * * * * * * * * * * * * * * * * * * * //

dimensions      [0 1 -1 0 0 0 0];


internalField   nonuniform List<vector> 
64485
(
(-21.25358737 -5.140051157 0)
(-22.04546505 -5.059900891 0)
(-22.31570113 -4.84097767 0)
(-22.69722969 -4.63414933 0)
(-22.93181277 -4.384317773 0)
(-23.10476832 -4.139638549 0)
(-23.22060703 -3.884978411 0)
(-23.30193528 -3.634934098 0)
(-23.35402419 -3.387349316 0)
(-23.38504664 -3.145760669 0)
(-23.40084888 -2.910907917 0)
(-23.40642372 -2.683781287 0)
(-23.40522023 -2.464862159 0)
(-23.39652403 -2.255026938 0)
(-23.38621564 -2.051083498 0)
(-23.37512465 -1.853029117 0)
(-23.36350067 -1.660370081 0)
(-23.35108168 -1.472627208 0)
(-23.33726276 -1.289376116 0)
(-23.321246 -1.11025997 0)
(-23.3021601 -0.9349906988 0)
(-23.27915236 -0.7633360629 0)
(-23.25145648 -0.595100948 0)
(-23.21843995 -0.430112573 0)
(-23.17963456 -0.2682156129 0)
(-23.13475266 -0.1092764542 0)
(-23.08369204 0.04680613593 0)
(-23.0265293 0.200094994 0)
(-22.96350109 0.3506288741 0)
(-22.89496683 0.4984115103 0)
(-22.82136406 0.6434073997 0)
(-22.74316281 0.7855632943 0)
(-22.66082555 0.9248165142 0)
(-22.57477428 1.061099441 0)
(-22.48536632 1.194341219 0)
(-22.3928799 1.324466517 0)
(-22.2975091 1.451392302 0)
(-22.19936639 1.575023788 0)
(-22.09849081 1.695250381 0)
(-21.99485966 1.811942162 0)
(-21.88840196 1.924947239 0)
(-21.77901236 2.034090112 0)
(-21.66656465 2.13917106 0)
(-21.55092404 2.239966504 0)
(-21.43195817 2.336230207 0)
(-21.30954639 2.42769519 0)
(-21.1835873 2.5140762 0)
(-21.05400444 2.595072554 0)
(-20.92074997 2.67037115 0)
(-20.78380662 2.739649323 0)
(-20.64318784 2.802577044 0)
(-20.49893715 2.858817201 0)
(-20.35112838 2.908020113 0)
(-20.19987248 2.949825941 0)
(-20.04484363 2.983451941 0)
(-19.8860898 3.008462916 0)
(-19.72431962 3.025147321 0)
(-19.55981982 3.033341264 0)
(-19.3928034 3.032691279 0)
(-19.22354771 3.022776035 0)
(-19.0524417 3.003201134 0)
(-18.88002796 2.973273799 0)
(-18.70720088 2.932715966 0)
(-18.53301302 2.881530615 0)
(-18.36139317 2.818147989 0)
(-18.19355415 2.741940503 0)
(-18.02982296 2.652762058 0)
(-17.87232383 2.550120257 0)
(-17.72342881 2.433617813 0)
(-17.58525903 2.303022111 0)
(-17.45926865 2.158302476 0)
(-17.34563408 1.999643068 0)
(-17.24265348 1.827371375 0)
(-17.14668893 1.641746805 0)
(-17.0533469 1.442684483 0)
(-16.96087731 1.228959964 0)
(-16.86908708 1.00076409 0)
(-16.78668228 0.7591282107 0)
(-16.72344447 0.5056860805 0)
(-16.68743884 0.2437493453 0)
(-16.68096645 -0.02219712339 0)
(-16.69914315 -0.2873441739 0)
(-16.73204869 -0.5473483072 0)
(-16.76985886 -0.7988394135 0)
(-16.8080313 -1.03946684 0)
(-16.84929318 -1.267531556 0)
(-16.9012757 -1.481486943 0)
(-16.96946402 -1.679592734 0)
(-17.06088767 -1.861198375 0)
(-17.17522939 -2.025471308 0)
(-17.30994186 -2.172852122 0)
(-17.46120457 -2.30385498 0)
(-17.62487801 -2.419120055 0)
(-17.79708133 -2.519410522 0)
(-17.97448225 -2.605517452 0)
(-18.15500645 -2.678094509 0)
(-18.33904877 -2.737478205 0)
(-18.5204105 -2.78541088 0)
(-18.70098887 -2.822458503 0)
(-18.87957949 -2.848444131 0)
(-19.05557071 -2.864289982 0)
(-19.22860857 -2.87041786 0)
(-19.39843869 -2.867222031 0)
(-19.5648278 -2.854981714 0)
(-19.72729989 -2.833621639 0)
(-19.88547308 -2.803223183 0)
(-20.03981293 -2.76473356 0)
(-20.19023558 -2.71851735 0)
(-20.33668906 -2.664937761 0)
(-20.47914298 -2.604345843 0)
(-20.61758796 -2.537087479 0)
(-20.75203739 -2.463503924 0)
(-20.88252913 -2.383930086 0)
(-21.00912612 -2.298691851 0)
(-21.13191532 -2.208102977 0)
(-21.25100476 -2.11246191 0)
(-21.36651875 -2.01204879 0)
(-21.4785914 -1.907122829 0)
(-21.5873585 -1.79792026 0)
(-21.69294811 -1.684652951 0)
(-21.79546994 -1.567507813 0)
(-21.89500387 -1.446647104 0)
(-21.99158787 -1.322209707 0)
(-22.08520614 -1.194313404 0)
(-22.1757782 -1.063058072 0)
(-22.26315016 -0.9285295941 0)
(-22.34708989 -0.7908041231 0)
(-22.42728773 -0.6499519284 0)
(-22.50336443 -0.5060398197 0)
(-22.57488712 -0.3591318013 0)
(-22.64139383 -0.2092875588 0)
(-22.70242756 -0.05655102339 0)
(-22.75757703 0.09905635424 0)
(-22.80651892 0.2575313581 0)
(-22.84904844 0.418899246 0)
(-22.8851043 0.5832219058 0)
(-22.91478308 0.750595991 0)
(-22.93834364 0.9211475897 0)
(-22.95620013 1.095024853 0)
(-22.96890341 1.272393669 0)
(-22.97711004 1.453440527 0)
(-22.98153711 1.638382278 0)
(-22.982901 1.827477412 0)
(-22.98183765 2.0210313 0)
(-22.97880217 2.219387782 0)
(-22.97394011 2.422953042 0)
(-22.96704453 2.631710267 0)
(-22.95440196 2.847593483 0)
(-22.93545512 3.07119479 0)
(-22.90945949 3.30194293 0)
(-22.87332598 3.539238341 0)
(-22.82311403 3.782200411 0)
(-22.75362542 4.029662385 0)
(-22.65982045 4.279291366 0)
(-22.53153125 4.531024985 0)
(-22.35604068 4.771746851 0)
(-22.0652673 5.01725427 0)
(-21.83445769 5.20458911 0)
(-21.23653734 5.413316598 0)
(-21.35140371 -5.01397119 0)
(-22.28358174 -4.949478412 0)
(-22.6295075 -4.731971445 0)
(-23.02761398 -4.545661472 0)
(-23.28441359 -4.307977539 0)
(-23.45675774 -4.081770217 0)
(-23.56580902 -3.838998867 0)
(-23.63577374 -3.597454557 0)
(-23.67449021 -3.355575834 0)
(-23.69054797 -3.117662871 0)
(-23.69072985 -2.885050102 0)
(-23.68063796 -2.659027238 0)
(-23.66472406 -2.440243046 0)
(-23.64703592 -2.227715956 0)
(-23.62865875 -2.021226889 0)
(-23.61045178 -1.820595544 0)
(-23.59268852 -1.625433737 0)
(-23.57505102 -1.435239294 0)
(-23.55681067 -1.249527996 0)
(-23.5370107 -1.067880842 0)
(-23.51461267 -0.8899647441 0)
(-23.48860512 -0.715536528 0)
(-23.4580798 -0.5444338054 0)
(-23.42228261 -0.376557376 0)
(-23.3806456 -0.2118511704 0)
(-23.33280421 -0.0502850896 0)
(-23.27860158 0.1081556763 0)
(-23.21808189 0.2634818563 0)
(-23.15146962 0.4157017311 0)
(-23.07912622 0.5648141485 0)
(-23.00149958 0.7108115662 0)
(-22.91907634 0.8536828564 0)
(-22.83233775 0.9934111903 0)
(-22.7417218 1.129972641 0)
(-22.64759562 1.263334216 0)
(-22.55023948 1.39345072 0)
(-22.44984121 1.520260925 0)
(-22.34649936 1.643683784 0)
(-22.24023257 1.763615203 0)
(-22.13099291 1.879925713 0)
(-22.01868108 1.992459222 0)
(-21.90316194 2.101032846 0)
(-21.78427945 2.205437737 0)
(-21.66187011 2.305440738 0)
(-21.53577484 2.400786684 0)
(-21.4058488 2.491201133 0)
(-21.27196923 2.576393331 0)
(-21.1340412 2.656059232 0)
(-20.99200108 2.729884391 0)
(-20.84581794 2.797546539 0)
(-20.69549278 2.858717646 0)
(-20.54105573 2.913065213 0)
(-20.38256119 2.960252757 0)
(-20.22008148 2.999941004 0)
(-20.05375617 3.031867731 0)
(-19.88376474 3.055841535 0)
(-19.71020042 3.07152794 0)
(-19.53318884 3.078520512 0)
(-19.35292984 3.076405081 0)
(-19.16971524 3.064774468 0)
(-18.98394334 3.043260554 0)
(-18.79626734 3.011416554 0)
(-18.60865329 2.969097507 0)
(-18.42363289 2.916647953 0)
(-18.23712883 2.85092069 0)
(-18.05058952 2.771468001 0)
(-17.86800118 2.679025084 0)
(-17.69157851 2.573125494 0)
(-17.52356623 2.453304914 0)
(-17.36622832 2.319288514 0)
(-17.22128397 2.171022138 0)
(-17.08914404 2.008688632 0)
(-16.96817304 1.832651163 0)
(-16.85456318 1.643283816 0)
(-16.74363219 1.440735769 0)
(-16.63290718 1.224953666 0)
(-16.52694836 0.9958517186 0)
(-16.432195 0.7530435612 0)
(-16.35951993 0.4982914277 0)
(-16.31789628 0.2349121483 0)
(-16.31002273 -0.03264132766 0)
(-16.33092476 -0.2995537092 0)
(-16.37024578 -0.5613767978 0)
(-16.41754162 -0.814539643 0)
(-16.46767591 -1.056494572 0)
(-16.52291813 -1.285417603 0)
(-16.59052381 -1.499919723 0)
(-16.67940828 -1.699599132 0)
(-16.79249455 -1.882800197 0)
(-16.9290535 -2.048964006 0)
(-17.08605874 -2.198292216 0)
(-17.25918787 -2.331276847 0)
(-17.44400676 -2.448618123 0)
(-17.63663097 -2.551121804 0)
(-17.83388914 -2.639592645 0)
(-18.0325177 -2.714328286 0)
(-18.22802116 -2.774470314 0)
(-18.42498632 -2.823825185 0)
(-18.62170624 -2.862371408 0)
(-18.81581114 -2.890081852 0)
(-19.00656966 -2.90750391 0)
(-19.19359865 -2.91502645 0)
(-19.37665637 -2.913055501 0)
(-19.55560219 -2.902006137 0)
(-19.73035969 -2.882263501 0)
(-19.90082733 -2.854085662 0)
(-20.06688308 -2.81771531 0)
(-20.22848492 -2.773498859 0)
(-20.38560179 -2.721781619 0)
(-20.5382173 -2.662906819 0)
(-20.68633437 -2.597215599 0)
(-20.82997918 -2.525046171 0)
(-20.96920401 -2.446732116 0)
(-21.10408854 -2.362600021 0)
(-21.2347391 -2.272966663 0)
(-21.36128602 -2.178135908 0)
(-21.4838787 -2.078395532 0)
(-21.60267886 -1.974014134 0)
(-21.71785192 -1.865238334 0)
(-21.82955678 -1.752290423 0)
(-21.93793414 -1.635366627 0)
(-22.0430938 -1.51463614 0)
(-22.14510118 -1.39024108 0)
(-22.24396388 -1.262297451 0)
(-22.33961918 -1.130897119 0)
(-22.43192405 -0.9961106741 0)
(-22.52064936 -0.8579909812 0)
(-22.60548046 -0.7165769095 0)
(-22.68602599 -0.5718966346 0)
(-22.76183663 -0.4239705221 0)
(-22.83243302 -0.2728144825 0)
(-22.89734172 -0.1184409829 0)
(-22.95614005 0.0391447784 0)
(-23.00850451 0.1999410064 0)
(-23.05424763 0.3639489087 0)
(-23.09334367 0.531178546 0)
(-23.12594453 0.7016520637 0)
(-23.15238393 0.8754096481 0)
(-23.17316936 1.052519728 0)
(-23.18896203 1.233093193 0)
(-23.20054353 1.417298947 0)
(-23.20876596 1.605375882 0)
(-23.21448059 1.797636054 0)
(-23.21843954 1.99445452 0)
(-23.22116773 2.19624283 0)
(-23.22280976 2.403358381 0)
(-23.22311956 2.615969593 0)
(-23.22184353 2.834325288 0)
(-23.21687008 3.059356736 0)
(-23.20515575 3.291120568 0)
(-23.18302403 3.52885672 0)
(-23.14596339 3.771564681 0)
(-23.08795053 4.017150225 0)
(-23.00348082 4.264314861 0)
(-22.87861528 4.506827618 0)
(-22.69193498 4.746119712 0)
(-22.37928167 4.976241182 0)
(-22.10767597 5.174461121 0)
(-21.40951162 5.39786983 0)
(-21.31795634 -4.375220133 0)
(-22.3451283 -4.501237976 0)
(-22.73145947 -4.311946416 0)
(-23.15593763 -4.19684541 0)
(-23.43201546 -3.9991889 0)
(-23.62562029 -3.817149904 0)
(-23.75316489 -3.601383831 0)
(-23.83606928 -3.38303879 0)
(-23.88303341 -3.158688169 0)
(-23.90379567 -2.934502034 0)
(-23.90598774 -2.712434996 0)
(-23.8959375 -2.49448338 0)
(-23.87835835 -2.281691124 0)
(-23.85622787 -2.074645815 0)
(-23.83260193 -1.873320357 0)
(-23.80904668 -1.677489212 0)
(-23.78602553 -1.486806182 0)
(-23.76329703 -1.300867479 0)
(-23.74017012 -1.11925914 0)
(-23.71570523 -0.941592078 0)
(-23.68887062 -0.7675231515 0)
(-23.65865616 -0.5967665481 0)
(-23.62415094 -0.429098361 0)
(-23.58459358 -0.2643561364 0)
(-23.53940356 -0.10243439 0)
(-23.48819907 0.0567224777 0)
(-23.43080202 0.2131338305 0)
(-23.36723779 0.3667980584 0)
(-23.29771053 0.5176927331 0)
(-23.22255933 0.6657815578 0)
(-23.14221106 0.8110263089 0)
(-23.05713396 0.953388754 0)
(-22.96779231 1.092830279 0)
(-22.87460724 1.22931034 0)
(-22.77792808 1.362783091 0)
(-22.67801544 1.493192685 0)
(-22.57503537 1.620468173 0)
(-22.46906273 1.744518788 0)
(-22.36009116 1.865230121 0)
(-22.24804728 1.98246149 0)
(-22.13280673 2.096044576 0)
(-22.01421062 2.205783252 0)
(-21.89208108 2.311454415 0)
(-21.76623526 2.412809609 0)
(-21.63649757 2.509577213 0)
(-21.50270966 2.601465003 0)
(-21.36473837 2.688162891 0)
(-21.22248127 2.769345748 0)
(-21.07587011 2.8446762 0)
(-20.92487179 2.913807349 0)
(-20.76948726 2.97638533 0)
(-20.60974827 3.032051671 0)
(-20.44571226 3.080445531 0)
(-20.27745491 3.12120633 0)
(-20.10505276 3.153976351 0)
(-19.9285846 3.17840157 0)
(-19.74819824 3.194138848 0)
(-19.56410196 3.200843634 0)
(-19.37654681 3.198159593 0)
(-19.18583978 3.185715948 0)
(-18.99237376 3.163128775 0)
(-18.7966524 3.130014335 0)
(-18.59884649 3.085539995 0)
(-18.39939558 3.028831327 0)
(-18.20025113 2.959942216 0)
(-18.00308822 2.878703987 0)
(-17.80958232 2.784519144 0)
(-17.62186493 2.676795178 0)
(-17.44233009 2.554961159 0)
(-17.27333688 2.41850918 0)
(-17.11670481 2.267081035 0)
(-16.97295176 2.100543018 0)
(-16.84048032 1.918977731 0)
(-16.71535656 1.722514913 0)
(-16.59262897 1.511024739 0)
(-16.46936767 1.283937255 0)
(-16.34769721 1.040475497 0)
(-16.23759816 0.781024894 0)
(-16.15226443 0.5077298557 0)
(-16.10253704 0.2245117739 0)
(-16.09221809 -0.06341366201 0)
(-16.11644233 -0.3503691246 0)
(-16.16405483 -0.6309906642 0)
(-16.22330895 -0.900867853 0)
(-16.287832 -1.156843844 0)
(-16.35908926 -1.39673829 0)
(-16.443674 -1.618916508 0)
(-16.54798218 -1.822155248 0)
(-16.67546092 -2.006327577 0)
(-16.826017 -2.172143729 0)
(-16.99645472 -2.320483412 0)
(-17.18238423 -2.452394736 0)
(-17.37942242 -2.568951389 0)
(-17.58373485 -2.671121996 0)
(-17.79220932 -2.759739297 0)
(-18.00248326 -2.835529546 0)
(-18.21280404 -2.898989549 0)
(-18.42099193 -2.949951328 0)
(-18.62606465 -2.988968331 0)
(-18.82804443 -3.017099346 0)
(-19.02646466 -3.034746087 0)
(-19.22094479 -3.042292353 0)
(-19.41121839 -3.040100312 0)
(-19.59709285 -3.028521856 0)
(-19.77843514 -3.007901145 0)
(-19.95518202 -2.97858986 0)
(-20.12729205 -2.940945498 0)
(-20.29471853 -2.895327555 0)
(-20.45742415 -2.84209888 0)
(-20.61538681 -2.781623905 0)
(-20.76860486 -2.714266774 0)
(-20.9171018 -2.640389078 0)
(-21.06092978 -2.560347219 0)
(-21.20017128 -2.474489514 0)
(-21.3349387 -2.38315315 0)
(-21.46537174 -2.286661064 0)
(-21.59163257 -2.185318846 0)
(-21.7138989 -2.07941177 0)
(-21.83235517 -1.969202084 0)
(-21.94718189 -1.85492671 0)
(-22.05854342 -1.736795497 0)
(-22.16657455 -1.614990199 0)
(-22.27136623 -1.489664355 0)
(-22.37295127 -1.360944247 0)
(-22.47129103 -1.22893099 0)
(-22.56626478 -1.093703734 0)
(-22.65766359 -0.955323799 0)
(-22.74519088 -0.8138393277 0)
(-22.82847182 -0.6692897751 0)
(-22.90707283 -0.5217097059 0)
(-22.98053076 -0.3711320515 0)
(-23.04838945 -0.2175905008 0)
(-23.11024328 -0.06111461505 0)
(-23.16578623 0.09827577809 0)
(-23.21485369 0.2605701779 0)
(-23.25744436 0.4257778274 0)
(-23.29373409 0.5939406556 0)
(-23.32407716 0.7651427907 0)
(-23.34899637 0.9395190844 0)
(-23.36916196 1.117260849 0)
(-23.38535806 1.298617792 0)
(-23.39843243 1.483895344 0)
(-23.40922314 1.673446656 0)
(-23.41845586 1.867658264 0)
(-23.42660679 2.066927592 0)
(-23.43372719 2.271634569 0)
(-23.43915848 2.482118341 0)
(-23.44103048 2.698626162 0)
(-23.43745894 2.921033509 0)
(-23.42575583 3.148850711 0)
(-23.40187682 3.381017509 0)
(-23.36071157 3.61620055 0)
(-23.2955524 3.851491165 0)
(-23.20012331 4.085946123 0)
(-23.0591191 4.310856802 0)
(-22.86100884 4.5284048 0)
(-22.53039588 4.726857628 0)
(-22.25873721 4.927750995 0)
(-21.50831538 5.063837464 0)
(-21.21565895 -3.787935595 0)
(-22.40540667 -4.086354352 0)
(-22.89054509 -3.951430614 0)
(-23.33921761 -3.90413498 0)
(-23.64084483 -3.737691037 0)
(-23.8492087 -3.592869896 0)
(-23.98407212 -3.401425354 0)
(-24.06931554 -3.204247991 0)
(-24.11520226 -2.995825533 0)
(-24.13226132 -2.784087959 0)
(-24.1289009 -2.571591652 0)
(-24.11217866 -2.361066862 0)
(-24.08766012 -2.154125196 0)
(-24.05951006 -1.951593989 0)
(-24.03035039 -1.753798927 0)
(-24.00164835 -1.56081696 0)
(-23.9739195 -1.372495348 0)
(-23.94694301 -1.18854237 0)
(-23.9199992 -1.008618147 0)
(-23.8920869 -0.8323944888 0)
(-23.86209853 -0.6595858707 0)
(-23.82894723 -0.4899602677 0)
(-23.79165182 -0.3233384436 0)
(-23.74939021 -0.159588232 0)
(-23.7015321 0.001381732739 0)
(-23.64765664 0.1596280576 0)
(-23.58756059 0.3151857922 0)
(-23.52125396 0.4680697095 0)
(-23.4489293 0.6182708535 0)
(-23.37091905 0.7657694572 0)
(-23.28764946 0.9105406991 0)
(-23.19959063 1.052556165 0)
(-23.10720778 1.191784332 0)
(-23.01091953 1.328189157 0)
(-22.91106761 1.461726389 0)
(-22.80789916 1.592338505 0)
(-22.70156097 1.719949315 0)
(-22.59210355 1.84445906 0)
(-22.47949233 1.96574056 0)
(-22.36362305 2.083636676 0)
(-22.24433919 2.197959162 0)
(-22.12144951 2.308488807 0)
(-21.99474456 2.414976653 0)
(-21.86401145 2.517146052 0)
(-21.72904655 2.614695365 0)
(-21.58966597 2.707301112 0)
(-21.44571371 2.794621427 0)
(-21.29706753 2.876299731 0)
(-21.14364252 2.951968523 0)
(-20.98539231 3.021253237 0)
(-20.82230798 3.083776078 0)
(-20.65441496 3.13915976 0)
(-20.48176809 3.187031177 0)
(-20.3044461 3.227025286 0)
(-20.1225486 3.258789688 0)
(-19.93620366 3.281987194 0)
(-19.745569 3.29628873 0)
(-19.55082599 3.301361654 0)
(-19.35218851 3.296862048 0)
(-19.14992286 3.282430209 0)
(-18.94438539 3.257680042 0)
(-18.73609569 3.22214582 0)
(-18.52592699 3.175390424 0)
(-18.31465363 3.116967909 0)
(-18.10295453 3.046292993 0)
(-17.89213002 2.962781888 0)
(-17.68398938 2.865837818 0)
(-17.48073411 2.754825987 0)
(-17.2848729 2.629136917 0)
(-17.0989768 2.488255548 0)
(-16.92517029 2.331850127 0)
(-16.76430432 2.159848378 0)
(-16.61499189 1.972413511 0)
(-16.47320168 1.769713925 0)
(-16.33358218 1.551510432 0)
(-16.19311919 1.316908645 0)
(-16.05535941 1.064906353 0)
(-15.93085994 0.7954808582 0)
(-15.83418861 0.5106749489 0)
(-15.77766125 0.2148893809 0)
(-15.76596989 -0.0857820239 0)
(-15.79429621 -0.3846915149 0)
(-15.85078391 -0.6756974942 0)
(-15.92253958 -0.9540298014 0)
(-16.00208845 -1.216642627 0)
(-16.09017585 -1.461791615 0)
(-16.19306458 -1.688446387 0)
(-16.31721889 -1.896045414 0)
(-16.46549728 -2.084450445 0)
(-16.636472 -2.254006222 0)
(-16.82630433 -2.405573783 0)
(-17.0303739 -2.540238747 0)
(-17.24425078 -2.659091102 0)
(-17.46415008 -2.763136734 0)
(-17.68704292 -2.853258765 0)
(-17.91060594 -2.93020898 0)
(-18.13314987 -2.994610622 0)
(-18.3537011 -3.047065384 0)
(-18.57167934 -3.08807224 0)
(-18.78614045 -3.118009115 0)
(-18.99654461 -3.137333653 0)
(-19.20254909 -3.146426797 0)
(-19.40392196 -3.145634139 0)
(-19.60049632 -3.135286268 0)
(-19.79214613 -3.115707433 0)
(-19.97877588 -3.087224508 0)
(-20.16031685 -3.050176986 0)
(-20.33671541 -3.004918572 0)
(-20.50793225 -2.951814386 0)
(-20.67394649 -2.891238362 0)
(-20.83476099 -2.823570411 0)
(-20.99040725 -2.749193107 0)
(-21.14094902 -2.668487912 0)
(-21.28648401 -2.581831136 0)
(-21.42714335 -2.489589797 0)
(-21.56308876 -2.392117513 0)
(-21.69450743 -2.289750526 0)
(-21.8216048 -2.182803972 0)
(-21.94459523 -2.071568518 0)
(-22.06369081 -1.956307506 0)
(-22.17908851 -1.837254746 0)
(-22.29095579 -1.714613098 0)
(-22.39941539 -1.588554023 0)
(-22.50452983 -1.459218253 0)
(-22.60628702 -1.326717699 0)
(-22.70458848 -1.191138559 0)
(-22.7992424 -1.052545481 0)
(-22.88996398 -0.9109863646 0)
(-22.97638509 -0.7664970986 0)
(-23.05807497 -0.6191053996 0)
(-23.13457162 -0.4688333843 0)
(-23.2054214 -0.31569933 0)
(-23.27022342 -0.1597161163 0)
(-23.32867835 -0.0008813452835 0)
(-23.38063439 0.1608228176 0)
(-23.42611426 0.325431466 0)
(-23.46532691 0.4930081883 0)
(-23.49866895 0.6636512802 0)
(-23.52671419 0.8374985402 0)
(-23.55019183 1.0147319 0)
(-23.56995107 1.195581651 0)
(-23.58690685 1.380328557 0)
(-23.6019589 1.569299924 0)
(-23.61587699 1.76285375 0)
(-23.62915101 1.961344024 0)
(-23.64181555 2.165062574 0)
(-23.65327971 2.374167819 0)
(-23.66220345 2.588691949 0)
(-23.66617136 2.808421931 0)
(-23.66168316 3.032649431 0)
(-23.64412168 3.259916707 0)
(-23.60791089 3.488733288 0)
(-23.54578005 3.715095249 0)
(-23.45139896 3.940385556 0)
(-23.30686871 4.148605159 0)
(-23.0962763 4.361054606 0)
(-22.75301024 4.532827374 0)
(-22.45053461 4.737732415 0)
(-21.58085467 4.796084323 0)
(-20.94501351 -2.732140201 0)
(-22.23425136 -3.314851871 0)
(-22.8621657 -3.318750386 0)
(-23.37494039 -3.405320863 0)
(-23.72792368 -3.320726734 0)
(-23.97585108 -3.246558698 0)
(-24.14118144 -3.104410821 0)
(-24.24675995 -2.945900999 0)
(-24.30568834 -2.766477468 0)
(-24.33013387 -2.576978482 0)
(-24.32997502 -2.381529057 0)
(-24.31342927 -2.184195774 0)
(-24.28696898 -1.987588393 0)
(-24.25540561 -1.793446736 0)
(-24.22211937 -1.602741724 0)
(-24.1890864 -1.41589039 0)
(-24.15710534 -1.232953248 0)
(-24.12609528 -1.053781641 0)
(-24.09538674 -0.8781296386 0)
(-24.0639762 -0.7057318943 0)
(-24.03072738 -0.536349205 0)
(-23.99451541 -0.3697885789 0)
(-23.95432028 -0.2059066372 0)
(-23.90928331 -0.04460427514 0)
(-23.85874069 0.114180488 0)
(-23.8022416 0.2704856637 0)
(-23.73956075 0.4243329666 0)
(-23.67068752 0.575722141 0)
(-23.59579627 0.7246376564 0)
(-23.51520754 0.8710576716 0)
(-23.42934124 1.014956189 0)
(-23.33866364 1.156304093 0)
(-23.24363557 1.295069134 0)
(-23.14466842 1.431213637 0)
(-23.04209206 1.564689973 0)
(-22.93613654 1.695434858 0)
(-22.82692642 1.823363517 0)
(-22.71448576 1.948364538 0)
(-22.59875063 2.070295987 0)
(-22.479586 2.188983015 0)
(-22.35680462 2.304216992 0)
(-22.23018586 2.415756039 0)
(-22.09949323 2.523326697 0)
(-21.96448998 2.626626497 0)
(-21.8249524 2.725327194 0)
(-21.68068069 2.819078478 0)
(-21.53150734 2.907512026 0)
(-21.37730309 2.99024576 0)
(-21.21798045 3.066888224 0)
(-21.05349467 3.137042961 0)
(-20.88384232 3.200312783 0)
(-20.70905764 3.256303801 0)
(-20.52920719 3.304629071 0)
(-20.34438365 3.344911715 0)
(-20.15470043 3.376787013 0)
(-19.96028868 3.399901941 0)
(-19.76129837 3.413910859 0)
(-19.55790289 3.418469188 0)
(-19.35030726 3.413227251 0)
(-19.13876347 3.397823839 0)
(-18.92359313 3.371878937 0)
(-18.70520834 3.334980078 0)
(-18.48408401 3.286620397 0)
(-18.26094632 3.226243374 0)
(-18.03688436 3.153337899 0)
(-17.81330597 3.067377436 0)
(-17.59198792 2.967755757 0)
(-17.37509399 2.853798232 0)
(-17.16513155 2.724806404 0)
(-16.96474304 2.580133773 0)
(-16.77620781 2.419287547 0)
(-16.60056097 2.242022289 0)
(-16.43647737 2.048335527 0)
(-16.27966703 1.838243425 0)
(-16.12416751 1.611339949 0)
(-15.966349 1.366517109 0)
(-15.80980271 1.102424016 0)
(-15.66711256 0.8188594038 0)
(-15.55564326 0.5181016598 0)
(-15.49018902 0.2051942344 0)
(-15.47684741 -0.1128733631 0)
(-15.51080422 -0.4284921818 0)
(-15.57895565 -0.7346597563 0)
(-15.66647399 -1.026017218 0)
(-15.76406058 -1.299285466 0)
(-15.8712838 -1.552782339 0)
(-15.99373485 -1.785703597 0)
(-16.13720718 -1.997778277 0)
(-16.30391585 -2.189319141 0)
(-16.49229973 -2.36120472 0)
(-16.69847465 -2.5146282 0)
(-16.91782668 -2.650877086 0)
(-17.14603533 -2.771186804 0)
(-17.3794818 -2.876643621 0)
(-17.61530709 -2.968153055 0)
(-17.85131978 -3.046443664 0)
(-18.08586713 -3.112092492 0)
(-18.31773617 -3.165585742 0)
(-18.54607338 -3.207427619 0)
(-18.77039347 -3.238112774 0)
(-18.9903025 -3.258033583 0)
(-19.20550613 -3.267547173 0)
(-19.41579252 -3.266991185 0)
(-19.62100605 -3.256695408 0)
(-19.82102719 -3.236988874 0)
(-20.01575978 -3.208206536 0)
(-20.20512272 -3.170694598 0)
(-20.38904736 -3.124813004 0)
(-20.56747978 -3.070935128 0)
(-20.74038596 -3.009446034 0)
(-20.90775797 -2.940739817 0)
(-21.06961971 -2.865216209 0)
(-21.22603117 -2.783276566 0)
(-21.37709072 -2.695319433 0)
(-21.52293484 -2.601735909 0)
(-21.66373538 -2.502904985 0)
(-21.79969435 -2.399188998 0)
(-21.93103638 -2.290929311 0)
(-22.05799899 -2.178442362 0)
(-22.18082079 -2.062016237 0)
(-22.2997278 -1.941907935 0)
(-22.41491816 -1.818341495 0)
(-22.52654568 -1.691507131 0)
(-22.63470318 -1.56156157 0)
(-22.73940665 -1.428629711 0)
(-22.84058234 -1.292807624 0)
(-22.93805885 -1.154166722 0)
(-23.03156698 -1.012758766 0)
(-23.12074972 -0.8686209705 0)
(-23.20518402 -0.7217803188 0)
(-23.28441427 -0.572256316 0)
(-23.35799485 -0.4200625746 0)
(-23.42553693 -0.2652071748 0)
(-23.48675631 -0.1076863778 0)
(-23.54151936 0.0525227603 0)
(-23.58987588 0.2154592632 0)
(-23.63206817 0.3811835988 0)
(-23.66853017 0.5497878335 0)
(-23.69987561 0.7214012122 0)
(-23.72687507 0.8961964503 0)
(-23.75041912 1.07439534 0)
(-23.77145961 1.256270259 0)
(-23.79091943 1.442135887 0)
(-23.80956173 1.632324529 0)
(-23.82781638 1.827139371 0)
(-23.8455707 2.0267838 0)
(-23.86194044 2.231268699 0)
(-23.87506108 2.440283209 0)
(-23.88205207 2.65303773 0)
(-23.87889783 2.868205169 0)
(-23.86032005 3.083580022 0)
(-23.81995047 3.29699317 0)
(-23.74964429 3.502680647 0)
(-23.64205018 3.703085439 0)
(-23.4786583 3.873233201 0)
(-23.24532849 4.050574509 0)
(-22.88090532 4.160320112 0)
(-22.52923779 4.327296008 0)
(-21.55753067 4.219667013 0)
(-20.580619 -1.600467197 0)
(-21.91126601 -2.380528432 0)
(-22.73778065 -2.58021403 0)
(-23.3459842 -2.815891334 0)
(-23.77153208 -2.833497568 0)
(-24.0677 -2.837335318 0)
(-24.27026828 -2.754674245 0)
(-24.40145222 -2.642656456 0)
(-24.47763228 -2.498944172 0)
(-24.51266124 -2.337125013 0)
(-24.51804887 -2.163189606 0)
(-24.50338072 -1.982762386 0)
(-24.47632652 -1.799646084 0)
(-24.44268956 -1.616470054 0)
(-24.40648504 -1.434875119 0)
(-24.37014969 -1.25578185 0)
(-24.33480038 -1.079595289 0)
(-24.30054107 -0.906391689 0)
(-24.26678118 -0.7360694994 0)
(-24.23252536 -0.5684581256 0)
(-24.19660769 -0.4033850881 0)
(-24.15786046 -0.2407089976 0)
(-24.11522223 -0.08032933819 0)
(-24.06780021 0.07781622448 0)
(-24.01490397 0.2337624656 0)
(-23.95606617 0.387529007 0)
(-23.8910482 0.5391187405 0)
(-23.81982596 0.6885175609 0)
(-23.74256305 0.8357042784 0)
(-23.65957408 0.9806535806 0)
(-23.57127613 1.123336938 0)
(-23.47813327 1.263723219 0)
(-23.38060214 1.401777775 0)
(-23.27908582 1.537459133 0)
(-23.17390033 1.670713632 0)
(-23.06525566 1.801469162 0)
(-22.95325055 1.92962895 0)
(-22.83787852 2.055066276 0)
(-22.71904183 2.177620621 0)
(-22.59657003 2.29709548 0)
(-22.47024024 2.413257816 0)
(-22.3397973 2.525838963 0)
(-22.20497233 2.634536724 0)
(-22.06549908 2.739018395 0)
(-21.92112777 2.838924456 0)
(-21.77163632 2.933872776 0)
(-21.616839 3.023463173 0)
(-21.45659256 3.107282212 0)
(-21.2907997 3.184908152 0)
(-21.11941012 3.255915895 0)
(-20.94241891 3.319881814 0)
(-20.75986274 3.376388249 0)
(-20.57181411 3.425027459 0)
(-20.37837469 3.465404709 0)
(-20.17966887 3.497140003 0)
(-19.97583927 3.519867731 0)
(-19.76704475 3.5332337 0)
(-19.55346133 3.536889783 0)
(-19.33528887 3.530486715 0)
(-19.11276659 3.51366537 0)
(-18.88619976 3.486044067 0)
(-18.65599929 3.447206377 0)
(-18.42272792 3.396710541 0)
(-18.18708957 3.334079687 0)
(-17.9499981 3.258771312 0)
(-17.7127127 3.170171737 0)
(-17.47690754 3.067598283 0)
(-17.24470448 2.950308428 0)
(-17.01864041 2.817533573 0)
(-16.80148125 2.668545135 0)
(-16.59573667 2.502753775 0)
(-16.4027316 2.319810086 0)
(-16.2213295 2.119611059 0)
(-16.04709247 1.902068158 0)
(-15.87352008 1.666616106 0)
(-15.6965408 1.411873223 0)
(-15.52028175 1.136208281 0)
(-15.35903434 0.839284968 0)
(-15.23272994 0.5235580762 0)
(-15.15859378 0.1946596154 0)
(-15.14413498 -0.1395540501 0)
(-15.18454941 -0.4705274843 0)
(-15.265479 -0.7904132889 0)
(-15.37011106 -1.093320182 0)
(-15.48725057 -1.375862116 0)
(-15.61522369 -1.636610687 0)
(-15.75895278 -1.875206893 0)
(-15.923756 -2.091846927 0)
(-16.11136064 -2.287188195 0)
(-16.31966696 -2.462305352 0)
(-16.54445894 -2.618543076 0)
(-16.78106426 -2.75730491 0)
(-17.02525828 -2.879888292 0)
(-17.27358082 -2.98741455 0)
(-17.52334585 -3.080818032 0)
(-17.77253814 -3.16086553 0)
(-18.01969147 -3.228186835 0)
(-18.26377213 -3.283307512 0)
(-18.50404608 -3.326672543 0)
(-18.73993649 -3.358680454 0)
(-18.97103699 -3.37970876 0)
(-19.19706127 -3.390106118 0)
(-19.41780316 -3.39020365 0)
(-19.63310618 -3.380326689 0)
(-19.84284381 -3.360804097 0)
(-20.04690819 -3.331974938 0)
(-20.24520492 -3.294193096 0)
(-20.43765256 -3.247829421 0)
(-20.62418624 -3.193271645 0)
(-20.80476367 -3.130922674 0)
(-20.97937204 -3.061197711 0)
(-21.14803415 -2.984520505 0)
(-21.31081307 -2.901318911 0)
(-21.46781462 -2.812019951 0)
(-21.61918723 -2.717044618 0)
(-21.76511925 -2.616802636 0)
(-21.90583353 -2.511687379 0)
(-22.04157963 -2.402071035 0)
(-22.17262363 -2.288300158 0)
(-22.2992358 -2.170691752 0)
(-22.42167615 -2.049530073 0)
(-22.54017819 -1.925064316 0)
(-22.65493145 -1.797507376 0)
(-22.7660634 -1.66703585 0)
(-22.87362236 -1.533791423 0)
(-22.9775632 -1.397883698 0)
(-23.0777384 -1.259394338 0)
(-23.17389739 -1.118382175 0)
(-23.26569663 -0.9748886354 0)
(-23.35272243 -0.8289425547 0)
(-23.43452631 -0.6805633765 0)
(-23.51067015 -0.5297627342 0)
(-23.58077579 -0.3765451288 0)
(-23.64457279 -0.2209061234 0)
(-23.70194243 -0.06282311832 0)
(-23.75295216 0.09774612639 0)
(-23.79786993 0.2608606981 0)
(-23.83716009 0.4266055585 0)
(-23.87147237 0.5951002641 0)
(-23.90161931 0.7665051423 0)
(-23.92853713 0.9410262254 0)
(-23.95321976 1.118913681 0)
(-23.97661352 1.300445863 0)
(-23.99946418 1.485890522 0)
(-24.02211752 1.675436364 0)
(-24.0442888 1.869093516 0)
(-24.06482871 2.066567656 0)
(-24.08152224 2.267126191 0)
(-24.09092343 2.469432594 0)
(-24.08828816 2.671457022 0)
(-24.06756622 2.870058594 0)
(-24.02160669 3.062214482 0)
(-23.94160263 3.240286246 0)
(-23.81939406 3.407936584 0)
(-23.63698503 3.531738909 0)
(-23.37833752 3.666038668 0)
(-22.98864214 3.70255314 0)
(-22.55856143 3.809720799 0)
(-21.45127742 3.532497821 0)
(-20.1495317 -0.290164765 0)
(-21.29685497 -1.119621461 0)
(-22.36125479 -1.611477826 0)
(-23.13368791 -2.046868196 0)
(-23.68287631 -2.222593778 0)
(-24.06115957 -2.32932536 0)
(-24.32604514 -2.327598603 0)
(-24.50112471 -2.276201132 0)
(-24.6081114 -2.179004094 0)
(-24.66382026 -2.053020035 0)
(-24.68228083 -1.906945242 0)
(-24.67504809 -1.748420323 0)
(-24.65139571 -1.582797126 0)
(-24.61841967 -1.413897891 0)
(-24.58117327 -1.244244987 0)
(-24.54285686 -1.075375213 0)
(-24.5051045 -0.9081145877 0)
(-24.46833558 -0.7428195998 0)
(-24.43212318 -0.5795716535 0)
(-24.39553304 -0.4183202258 0)
(-24.35740078 -0.2589756456 0)
(-24.31653352 -0.1014590772 0)
(-24.27183847 0.05427788552 0)
(-24.22239482 0.2082535708 0)
(-24.16749262 0.3604687541 0)
(-24.10665183 0.5109100549 0)
(-24.03962186 0.6595494706 0)
(-23.96636744 0.8063530206 0)
(-23.88704505 0.9512852642 0)
(-23.80196585 1.094309854 0)
(-23.71154515 1.235389755 0)
(-23.61624468 1.374486823 0)
(-23.51651589 1.511559499 0)
(-23.41275179 1.646558219 0)